 Entering Gaussian System, Link 0=/apl/gaussian/16c02/g16/._.g16
 Initial command:
 /apl/gaussian/16c02/g16/l1.exe "/lwork/users/sm2/679429.ccpbs1/gaussian/Gau-1806457.inp" -scrdir="/lwork/users/sm2/679429.ccpbs1/gaussian/"
 Default CPUs for threads: 0,1,2,3,4,5,14,15
 Default is to use a total of   8 processors:
                                8 via shared-memory
                                1 via Linda
 Entering Link 1 = /apl/gaussian/16c02/g16/l1.exe PID=   1806458.
  
 Copyright (c) 1988-2021, Gaussian, Inc.  All Rights Reserved.
  
 This is part of the Gaussian(R) 16 program.  It is based on
 the Gaussian(R) 09 system (copyright 2009, Gaussian, Inc.),
 the Gaussian(R) 03 system (copyright 2003, Gaussian, Inc.),
 the Gaussian(R) 98 system (copyright 1998, Gaussian, Inc.),
 the Gaussian(R) 94 system (copyright 1995, Gaussian, Inc.),
 the Gaussian 92(TM) system (copyright 1992, Gaussian, Inc.),
 the Gaussian 90(TM) system (copyright 1990, Gaussian, Inc.),
 the Gaussian 88(TM) system (copyright 1988, Gaussian, Inc.),
 the Gaussian 86(TM) system (copyright 1986, Carnegie Mellon
 University), and the Gaussian 82(TM) system (copyright 1983,
 Carnegie Mellon University). Gaussian is a federally registered
 trademark of Gaussian, Inc.
  
 This software contains proprietary and confidential information,
 including trade secrets, belonging to Gaussian, Inc.
  
 This software is provided under written license and may be
 used, copied, transmitted, or stored only in accord with that
 written license.
  
 The following legend is applicable only to US Government
 contracts under FAR:
  
                    RESTRICTED RIGHTS LEGEND
  
 Use, reproduction and disclosure by the US Government is
 subject to restrictions as set forth in subparagraphs (a)
 and (c) of the Commercial Computer Software - Restricted
 Rights clause in FAR 52.227-19.
  
 Gaussian, Inc.
 340 Quinnipiac St., Bldg. 40, Wallingford CT 06492
  
  
 ---------------------------------------------------------------
 Warning -- This program may not be used in any manner that
 competes with the business of Gaussian, Inc. or will provide
 assistance to any competitor of Gaussian, Inc.  The licensee
 of this program is prohibited from giving any competitor of
 Gaussian, Inc. access to this program.  By using this program,
 the user acknowledges that Gaussian, Inc. is engaged in the
 business of creating and licensing software in the field of
 computational chemistry and represents and warrants to the
 licensee that it is not a competitor of Gaussian, Inc. and that
 it will not use this program in any manner prohibited above.
 ---------------------------------------------------------------
  

 Cite this work as:
 Gaussian 16, Revision C.02,
 M. J. Frisch, G. W. Trucks, H. B. Schlegel, G. E. Scuseria, 
 M. A. Robb, J. R. Cheeseman, G. Scalmani, V. Barone, 
 G. A. Petersson, H. Nakatsuji, X. Li, M. Caricato, A. V. Marenich, 
 J. Bloino, B. G. Janesko, R. Gomperts, B. Mennucci, H. P. Hratchian, 
 J. V. Ortiz, A. F. Izmaylov, J. L. Sonnenberg, D. Williams-Young, 
 F. Ding, F. Lipparini, F. Egidi, J. Goings, B. Peng, A. Petrone, 
 T. Henderson, D. Ranasinghe, V. G. Zakrzewski, J. Gao, N. Rega, 
 G. Zheng, W. Liang, M. Hada, M. Ehara, K. Toyota, R. Fukuda, 
 J. Hasegawa, M. Ishida, T. Nakajima, Y. Honda, O. Kitao, H. Nakai, 
 T. Vreven, K. Throssell, J. A. Montgomery, Jr., J. E. Peralta, 
 F. Ogliaro, M. J. Bearpark, J. J. Heyd, E. N. Brothers, K. N. Kudin, 
 V. N. Staroverov, T. A. Keith, R. Kobayashi, J. Normand, 
 K. Raghavachari, A. P. Rendell, J. C. Burant, S. S. Iyengar, 
 J. Tomasi, M. Cossi, J. M. Millam, M. Klene, C. Adamo, R. Cammi, 
 J. W. Ochterski, R. L. Martin, K. Morokuma, O. Farkas, 
 J. B. Foresman, and D. J. Fox, Gaussian, Inc., Wallingford CT, 2019.
 
 ******************************************
 Gaussian 16:  ES64L-G16RevC.02  7-Dec-2021
                 5-Jun-2026 
 ******************************************
 %chk=BCP.chk
 %mem=9600MB
 SetSPE:  set environment variable "OMP_PROC_BIND" = "true"
 SetSPE:  set environment variable "OMP_PLACES" = "{0},{1},{2},{3},{4},{5},{14},{15}"
 --------------------------
 #p B3LYP/6-31G(d) opt freq
 --------------------------
 1/18=20,19=15,26=3,38=1/1,3;
 2/9=110,12=2,17=6,18=5,40=1/2;
 3/5=1,6=6,7=1,11=2,25=1,30=1,71=1,74=-5/1,2,3;
 4//1;
 5/5=2,38=5/2;
 6/7=2,8=2,9=2,10=2,28=1/1;
 7//1,2,3,16;
 1/18=20,19=15,26=3/3(2);
 2/9=110/2;
 99//99;
 2/9=110/2;
 3/5=1,6=6,7=1,11=2,25=1,30=1,71=1,74=-5/1,2,3;
 4/5=5,16=3,69=1/1;
 5/5=2,38=5/2;
 7//1,2,3,16;
 1/18=20,19=15,26=3/3(-5);
 2/9=110/2;
 6/7=2,8=2,9=2,10=2,19=2,28=1/1;
 99/9=1/99;
 Leave Link    1 at Fri Jun  5 16:56:56 2026, MaxMem=  1258291200 cpu:               0.0 elap:               0.2
 (Enter /apl/gaussian/16c02/g16/l101.exe)
 ---------------------------------
 BCP - B3LYP/6-31G(d) optimization
 ---------------------------------
 Symbolic Z-matrix:
 Charge =  0 Multiplicity = 1
 C                     4.7594    0.52351  -1.23775 
 C                     4.09663  -0.62271  -1.67235 
 C                     2.88768  -0.99698  -1.08208 
 C                     2.32602  -0.22752  -0.05156 
 C                     1.05281  -0.62233   0.57152 
 C                     1.09987  -1.46918   1.68084 
 C                    -0.08374  -1.84372   2.26997 
 N                    -1.28969  -1.43773   1.83494 
 C                    -1.3825   -0.61491   0.76091 
 C                    -0.2104   -0.17796   0.09068 
 C                    -0.33438   0.67656  -1.02249 
 C                    -1.57975   1.09415  -1.46963 
 C                    -2.7321    0.66602  -0.8126 
 C                    -3.9925    1.0862   -1.26194 
 C                    -5.14027   0.66172  -0.61007 
 C                    -4.98665  -0.17268   0.47431 
 N                    -3.78858  -0.59402   0.93024 
 C                    -2.64843  -0.19229   0.30888 
 C                     3.00698   0.92207   0.37768 
 C                     4.21589   1.29581  -0.213 
 H                     5.70106   0.81403  -1.69663 
 H                     4.52076  -1.22696  -2.47018 
 H                     2.38067  -1.89462  -1.43085 
 H                     2.04382  -1.82925   2.07695 
 H                    -0.10141  -2.50044   3.13464 
 H                     0.54603   1.02865  -1.55732 
 H                    -1.63858   1.75405  -2.33231 
 H                    -4.08616   1.74573  -2.12133 
 H                    -6.12466   0.97302  -0.93883 
 H                    -5.84471  -0.54116   1.02888 
 H                     2.59382   1.53402   1.17722 
 H                     4.73309   2.18893   0.12814 
 
 ITRead=  0  0  0  0  0  0  0  0  0  0  0  0  0  0  0  0  0  0  0  0
 ITRead=  0  0  0  0  0  0  0  0  0  0  0  0
 MicOpt= -1 -1 -1 -1 -1 -1 -1 -1 -1 -1 -1 -1 -1 -1 -1 -1 -1 -1 -1 -1
 MicOpt= -1 -1 -1 -1 -1 -1 -1 -1 -1 -1 -1 -1
 NAtoms=     32 NQM=       32 NQMF=       0 NMMI=      0 NMMIF=      0
                NMic=       0 NMicF=      0.
                    Isotopes and Nuclear Properties:
 (Nuclear quadrupole moments (NQMom) in fm**2, nuclear magnetic moments (NMagM)
  in nuclear magnetons)

  Atom         1           2           3           4           5           6           7           8           9          10
 IAtWgt=          12          12          12          12          12          12          12          14          12          12
 AtmWgt=  12.0000000  12.0000000  12.0000000  12.0000000  12.0000000  12.0000000  12.0000000  14.0030740  12.0000000  12.0000000
 NucSpn=           0           0           0           0           0           0           0           2           0           0
 AtZEff=  -0.0000000  -0.0000000  -0.0000000  -0.0000000  -0.0000000  -0.0000000  -0.0000000  -0.0000000  -0.0000000  -0.0000000
 NQMom=    0.0000000   0.0000000   0.0000000   0.0000000   0.0000000   0.0000000   0.0000000   2.0440000   0.0000000   0.0000000
 NMagM=    0.0000000   0.0000000   0.0000000   0.0000000   0.0000000   0.0000000   0.0000000   0.4037610   0.0000000   0.0000000
 AtZNuc=   6.0000000   6.0000000   6.0000000   6.0000000   6.0000000   6.0000000   6.0000000   7.0000000   6.0000000   6.0000000

  Atom        11          12          13          14          15          16          17          18          19          20
 IAtWgt=          12          12          12          12          12          12          14          12          12          12
 AtmWgt=  12.0000000  12.0000000  12.0000000  12.0000000  12.0000000  12.0000000  14.0030740  12.0000000  12.0000000  12.0000000
 NucSpn=           0           0           0           0           0           0           2           0           0           0
 AtZEff=  -0.0000000  -0.0000000  -0.0000000  -0.0000000  -0.0000000  -0.0000000  -0.0000000  -0.0000000  -0.0000000  -0.0000000
 NQMom=    0.0000000   0.0000000   0.0000000   0.0000000   0.0000000   0.0000000   2.0440000   0.0000000   0.0000000   0.0000000
 NMagM=    0.0000000   0.0000000   0.0000000   0.0000000   0.0000000   0.0000000   0.4037610   0.0000000   0.0000000   0.0000000
 AtZNuc=   6.0000000   6.0000000   6.0000000   6.0000000   6.0000000   6.0000000   7.0000000   6.0000000   6.0000000   6.0000000

  Atom        21          22          23          24          25          26          27          28          29          30
 IAtWgt=           1           1           1           1           1           1           1           1           1           1
 AtmWgt=   1.0078250   1.0078250   1.0078250   1.0078250   1.0078250   1.0078250   1.0078250   1.0078250   1.0078250   1.0078250
 NucSpn=           1           1           1           1           1           1           1           1           1           1
 AtZEff=  -0.0000000  -0.0000000  -0.0000000  -0.0000000  -0.0000000  -0.0000000  -0.0000000  -0.0000000  -0.0000000  -0.0000000
 NQMom=    0.0000000   0.0000000   0.0000000   0.0000000   0.0000000   0.0000000   0.0000000   0.0000000   0.0000000   0.0000000
 NMagM=    2.7928460   2.7928460   2.7928460   2.7928460   2.7928460   2.7928460   2.7928460   2.7928460   2.7928460   2.7928460
 AtZNuc=   1.0000000   1.0000000   1.0000000   1.0000000   1.0000000   1.0000000   1.0000000   1.0000000   1.0000000   1.0000000

  Atom        31          32
 IAtWgt=           1           1
 AtmWgt=   1.0078250   1.0078250
 NucSpn=           1           1
 AtZEff=  -0.0000000  -0.0000000
 NQMom=    0.0000000   0.0000000
 NMagM=    2.7928460   2.7928460
 AtZNuc=   1.0000000   1.0000000
 Leave Link  101 at Fri Jun  5 16:56:57 2026, MaxMem=  1258291200 cpu:               0.1 elap:               0.1
 (Enter /apl/gaussian/16c02/g16/l103.exe)

 GradGradGradGradGradGradGradGradGradGradGradGradGradGradGradGradGradGrad
 Berny optimization.
 Initialization pass.
                           ----------------------------
                           !    Initial Parameters    !
                           ! (Angstroms and Degrees)  !
 --------------------------                            --------------------------
 ! Name  Definition              Value          Derivative Info.                !
 --------------------------------------------------------------------------------
 ! R1    R(1,2)                  1.3935         estimate D2E/DX2                !
 ! R2    R(1,20)                 1.3935         estimate D2E/DX2                !
 ! R3    R(1,21)                 1.0871         estimate D2E/DX2                !
 ! R4    R(2,3)                  1.3964         estimate D2E/DX2                !
 ! R5    R(2,22)                 1.087          estimate D2E/DX2                !
 ! R6    R(3,4)                  1.4034         estimate D2E/DX2                !
 ! R7    R(3,23)                 1.0883         estimate D2E/DX2                !
 ! R8    R(4,5)                  1.4714         estimate D2E/DX2                !
 ! R9    R(4,19)                 1.4034         estimate D2E/DX2                !
 ! R10   R(5,6)                  1.3964         estimate D2E/DX2                !
 ! R11   R(5,10)                 1.4228         estimate D2E/DX2                !
 ! R12   R(6,7)                  1.3741         estimate D2E/DX2                !
 ! R13   R(6,24)                 1.0852         estimate D2E/DX2                !
 ! R14   R(7,8)                  1.3448         estimate D2E/DX2                !
 ! R15   R(7,25)                 1.0859         estimate D2E/DX2                !
 ! R16   R(8,9)                  1.3562         estimate D2E/DX2                !
 ! R17   R(9,10)                 1.4191         estimate D2E/DX2                !
 ! R18   R(9,18)                 1.4091         estimate D2E/DX2                !
 ! R19   R(10,11)                1.4088         estimate D2E/DX2                !
 ! R20   R(11,12)                1.3875         estimate D2E/DX2                !
 ! R21   R(11,26)                1.0886         estimate D2E/DX2                !
 ! R22   R(12,13)                1.3939         estimate D2E/DX2                !
 ! R23   R(12,27)                1.0877         estimate D2E/DX2                !
 ! R24   R(13,14)                1.4025         estimate D2E/DX2                !
 ! R25   R(13,18)                1.4147         estimate D2E/DX2                !
 ! R26   R(14,15)                1.3865         estimate D2E/DX2                !
 ! R27   R(14,28)                1.0873         estimate D2E/DX2                !
 ! R28   R(15,16)                1.3769         estimate D2E/DX2                !
 ! R29   R(15,29)                1.0835         estimate D2E/DX2                !
 ! R30   R(16,17)                1.3494         estimate D2E/DX2                !
 ! R31   R(16,30)                1.0861         estimate D2E/DX2                !
 ! R32   R(17,18)                1.3592         estimate D2E/DX2                !
 ! R33   R(19,20)                1.3964         estimate D2E/DX2                !
 ! R34   R(19,31)                1.0883         estimate D2E/DX2                !
 ! R35   R(20,32)                1.087          estimate D2E/DX2                !
 ! A1    A(2,1,20)             119.9785         estimate D2E/DX2                !
 ! A2    A(2,1,21)             120.0107         estimate D2E/DX2                !
 ! A3    A(20,1,21)            120.0107         estimate D2E/DX2                !
 ! A4    A(1,2,3)              120.0244         estimate D2E/DX2                !
 ! A5    A(1,2,22)             120.0373         estimate D2E/DX2                !
 ! A6    A(3,2,22)             119.9383         estimate D2E/DX2                !
 ! A7    A(2,3,4)              120.6588         estimate D2E/DX2                !
 ! A8    A(2,3,23)             119.2689         estimate D2E/DX2                !
 ! A9    A(4,3,23)             120.0722         estimate D2E/DX2                !
 ! A10   A(3,4,5)              120.6723         estimate D2E/DX2                !
 ! A11   A(3,4,19)             118.6545         estimate D2E/DX2                !
 ! A12   A(5,4,19)             120.6722         estimate D2E/DX2                !
 ! A13   A(4,5,6)              118.0308         estimate D2E/DX2                !
 ! A14   A(4,5,10)             122.7732         estimate D2E/DX2                !
 ! A15   A(6,5,10)             119.1959         estimate D2E/DX2                !
 ! A16   A(5,6,7)              118.48           estimate D2E/DX2                !
 ! A17   A(5,6,24)             121.3669         estimate D2E/DX2                !
 ! A18   A(7,6,24)             120.1531         estimate D2E/DX2                !
 ! A19   A(6,7,8)              123.4663         estimate D2E/DX2                !
 ! A20   A(6,7,25)             121.3475         estimate D2E/DX2                !
 ! A21   A(8,7,25)             115.1862         estimate D2E/DX2                !
 ! A22   A(7,8,9)              120.0488         estimate D2E/DX2                !
 ! A23   A(8,9,10)             120.286          estimate D2E/DX2                !
 ! A24   A(8,9,18)             119.8353         estimate D2E/DX2                !
 ! A25   A(10,9,18)            119.8786         estimate D2E/DX2                !
 ! A26   A(5,10,9)             118.5229         estimate D2E/DX2                !
 ! A27   A(5,10,11)            122.3171         estimate D2E/DX2                !
 ! A28   A(9,10,11)            119.1599         estimate D2E/DX2                !
 ! A29   A(10,11,12)           121.0753         estimate D2E/DX2                !
 ! A30   A(10,11,26)           120.8772         estimate D2E/DX2                !
 ! A31   A(12,11,26)           118.0475         estimate D2E/DX2                !
 ! A32   A(11,12,13)           119.8464         estimate D2E/DX2                !
 ! A33   A(11,12,27)           119.1242         estimate D2E/DX2                !
 ! A34   A(13,12,27)           121.0295         estimate D2E/DX2                !
 ! A35   A(12,13,14)           119.9941         estimate D2E/DX2                !
 ! A36   A(12,13,18)           120.7387         estimate D2E/DX2                !
 ! A37   A(14,13,18)           119.2672         estimate D2E/DX2                !
 ! A38   A(13,14,15)           120.1038         estimate D2E/DX2                !
 ! A39   A(13,14,28)           120.8197         estimate D2E/DX2                !
 ! A40   A(15,14,28)           119.0765         estimate D2E/DX2                !
 ! A41   A(14,15,16)           117.6096         estimate D2E/DX2                !
 ! A42   A(14,15,29)           121.4299         estimate D2E/DX2                !
 ! A43   A(16,15,29)           120.9605         estimate D2E/DX2                !
 ! A44   A(15,16,17)           123.6702         estimate D2E/DX2                !
 ! A45   A(15,16,30)           121.3057         estimate D2E/DX2                !
 ! A46   A(17,16,30)           115.0241         estimate D2E/DX2                !
 ! A47   A(16,17,18)           119.87           estimate D2E/DX2                !
 ! A48   A(9,18,13)            119.3011         estimate D2E/DX2                !
 ! A49   A(9,18,17)            121.2197         estimate D2E/DX2                !
 ! A50   A(13,18,17)           119.4792         estimate D2E/DX2                !
 ! A51   A(4,19,20)            120.6588         estimate D2E/DX2                !
 ! A52   A(4,19,31)            120.0723         estimate D2E/DX2                !
 ! A53   A(20,19,31)           119.2688         estimate D2E/DX2                !
 ! A54   A(1,20,19)            120.0244         estimate D2E/DX2                !
 ! A55   A(1,20,32)            120.0372         estimate D2E/DX2                !
 ! A56   A(19,20,32)           119.9384         estimate D2E/DX2                !
 ! D1    D(20,1,2,3)             0.0503         estimate D2E/DX2                !
 ! D2    D(20,1,2,22)         -179.8721         estimate D2E/DX2                !
 ! D3    D(21,1,2,3)           179.9305         estimate D2E/DX2                !
 ! D4    D(21,1,2,22)            0.0081         estimate D2E/DX2                !
 ! D5    D(2,1,20,19)           -0.0497         estimate D2E/DX2                !
 ! D6    D(2,1,20,32)          179.873          estimate D2E/DX2                !
 ! D7    D(21,1,20,19)        -179.9299         estimate D2E/DX2                !
 ! D8    D(21,1,20,32)          -0.0072         estimate D2E/DX2                !
 ! D9    D(1,2,3,4)              0.1202         estimate D2E/DX2                !
 ! D10   D(1,2,3,23)          -179.9814         estimate D2E/DX2                !
 ! D11   D(22,2,3,4)          -179.9573         estimate D2E/DX2                !
 ! D12   D(22,2,3,23)           -0.0589         estimate D2E/DX2                !
 ! D13   D(2,3,4,5)           -179.94           estimate D2E/DX2                !
 ! D14   D(2,3,4,19)            -0.2855         estimate D2E/DX2                !
 ! D15   D(23,3,4,5)             0.1623         estimate D2E/DX2                !
 ! D16   D(23,3,4,19)          179.8168         estimate D2E/DX2                !
 ! D17   D(3,4,5,6)             89.8202         estimate D2E/DX2                !
 ! D18   D(3,4,5,10)           -90.1795         estimate D2E/DX2                !
 ! D19   D(19,4,5,6)           -89.8274         estimate D2E/DX2                !
 ! D20   D(19,4,5,10)           90.173          estimate D2E/DX2                !
 ! D21   D(3,4,19,20)            0.2861         estimate D2E/DX2                !
 ! D22   D(3,4,19,31)         -179.8165         estimate D2E/DX2                !
 ! D23   D(5,4,19,20)          179.9407         estimate D2E/DX2                !
 ! D24   D(5,4,19,31)           -0.162          estimate D2E/DX2                !
 ! D25   D(4,5,6,7)            179.9996         estimate D2E/DX2                !
 ! D26   D(4,5,6,24)            -0.0006         estimate D2E/DX2                !
 ! D27   D(10,5,6,7)            -0.0008         estimate D2E/DX2                !
 ! D28   D(10,5,6,24)          179.9991         estimate D2E/DX2                !
 ! D29   D(4,5,10,9)          -179.9993         estimate D2E/DX2                !
 ! D30   D(4,5,10,11)            0.0013         estimate D2E/DX2                !
 ! D31   D(6,5,10,9)             0.0011         estimate D2E/DX2                !
 ! D32   D(6,5,10,11)         -179.9984         estimate D2E/DX2                !
 ! D33   D(5,6,7,8)             -0.0003         estimate D2E/DX2                !
 ! D34   D(5,6,7,25)           179.9992         estimate D2E/DX2                !
 ! D35   D(24,6,7,8)           179.9999         estimate D2E/DX2                !
 ! D36   D(24,6,7,25)           -0.0006         estimate D2E/DX2                !
 ! D37   D(6,7,8,9)              0.001          estimate D2E/DX2                !
 ! D38   D(25,7,8,9)          -179.9985         estimate D2E/DX2                !
 ! D39   D(7,8,9,10)            -0.0007         estimate D2E/DX2                !
 ! D40   D(7,8,9,18)           179.9987         estimate D2E/DX2                !
 ! D41   D(8,9,10,5)            -0.0004         estimate D2E/DX2                !
 ! D42   D(8,9,10,11)          179.9991         estimate D2E/DX2                !
 ! D43   D(18,9,10,5)         -179.9997         estimate D2E/DX2                !
 ! D44   D(18,9,10,11)          -0.0002         estimate D2E/DX2                !
 ! D45   D(8,9,18,13)         -179.998          estimate D2E/DX2                !
 ! D46   D(8,9,18,17)            0.0014         estimate D2E/DX2                !
 ! D47   D(10,9,18,13)           0.0014         estimate D2E/DX2                !
 ! D48   D(10,9,18,17)        -179.9992         estimate D2E/DX2                !
 ! D49   D(5,10,11,12)         179.9986         estimate D2E/DX2                !
 ! D50   D(5,10,11,26)          -0.0004         estimate D2E/DX2                !
 ! D51   D(9,10,11,12)          -0.0009         estimate D2E/DX2                !
 ! D52   D(9,10,11,26)        -179.9999         estimate D2E/DX2                !
 ! D53   D(10,11,12,13)          0.0009         estimate D2E/DX2                !
 ! D54   D(10,11,12,27)       -179.9989         estimate D2E/DX2                !
 ! D55   D(26,11,12,13)        179.9999         estimate D2E/DX2                !
 ! D56   D(26,11,12,27)          0.0001         estimate D2E/DX2                !
 ! D57   D(11,12,13,14)       -179.9994         estimate D2E/DX2                !
 ! D58   D(11,12,13,18)          0.0003         estimate D2E/DX2                !
 ! D59   D(27,12,13,14)          0.0003         estimate D2E/DX2                !
 ! D60   D(27,12,13,18)       -180.0            estimate D2E/DX2                !
 ! D61   D(12,13,14,15)       -179.9995         estimate D2E/DX2                !
 ! D62   D(12,13,14,28)          0.0008         estimate D2E/DX2                !
 ! D63   D(18,13,14,15)          0.0008         estimate D2E/DX2                !
 ! D64   D(18,13,14,28)       -179.9989         estimate D2E/DX2                !
 ! D65   D(12,13,18,9)          -0.0014         estimate D2E/DX2                !
 ! D66   D(12,13,18,17)        179.9991         estimate D2E/DX2                !
 ! D67   D(14,13,18,9)         179.9983         estimate D2E/DX2                !
 ! D68   D(14,13,18,17)         -0.0012         estimate D2E/DX2                !
 ! D69   D(13,14,15,16)          0.0001         estimate D2E/DX2                !
 ! D70   D(13,14,15,29)        179.9999         estimate D2E/DX2                !
 ! D71   D(28,14,15,16)        179.9998         estimate D2E/DX2                !
 ! D72   D(28,14,15,29)         -0.0004         estimate D2E/DX2                !
 ! D73   D(14,15,16,17)         -0.0008         estimate D2E/DX2                !
 ! D74   D(14,15,16,30)        179.9997         estimate D2E/DX2                !
 ! D75   D(29,15,16,17)        179.9994         estimate D2E/DX2                !
 ! D76   D(29,15,16,30)         -0.0002         estimate D2E/DX2                !
 ! D77   D(15,16,17,18)          0.0005         estimate D2E/DX2                !
 ! D78   D(30,16,17,18)       -180.0            estimate D2E/DX2                !
 ! D79   D(16,17,18,9)        -179.9989         estimate D2E/DX2                !
 ! D80   D(16,17,18,13)          0.0005         estimate D2E/DX2                !
 ! D81   D(4,19,20,1)           -0.1214         estimate D2E/DX2                !
 ! D82   D(4,19,20,32)         179.9558         estimate D2E/DX2                !
 ! D83   D(31,19,20,1)         179.9804         estimate D2E/DX2                !
 ! D84   D(31,19,20,32)          0.0576         estimate D2E/DX2                !
 --------------------------------------------------------------------------------
 Trust Radius=3.00D-01 FncErr=1.00D-07 GrdErr=1.00D-06 EigMax=2.50D+02 EigMin=1.00D-04
 Number of steps in this run=    185 maximum allowed number of steps=    192.
 GradGradGradGradGradGradGradGradGradGradGradGradGradGradGradGradGradGrad

 Leave Link  103 at Fri Jun  5 16:56:57 2026, MaxMem=  1258291200 cpu:               0.0 elap:               0.1
 (Enter /apl/gaussian/16c02/g16/l202.exe)
                          Input orientation:                          
 ---------------------------------------------------------------------
 Center     Atomic      Atomic             Coordinates (Angstroms)
 Number     Number       Type             X           Y           Z
 ---------------------------------------------------------------------
      1          6           0        4.759402    0.523510   -1.237754
      2          6           0        4.096627   -0.622714   -1.672352
      3          6           0        2.887677   -0.996979   -1.082083
      4          6           0        2.326017   -0.227524   -0.051561
      5          6           0        1.052810   -0.622331    0.571518
      6          6           0        1.099869   -1.469178    1.680835
      7          6           0       -0.083736   -1.843722    2.269966
      8          7           0       -1.289690   -1.437733    1.834937
      9          6           0       -1.382495   -0.614907    0.760913
     10          6           0       -0.210399   -0.177959    0.090681
     11          6           0       -0.334377    0.676561   -1.022488
     12          6           0       -1.579753    1.094153   -1.469629
     13          6           0       -2.732100    0.666020   -0.812601
     14          6           0       -3.992505    1.086205   -1.261942
     15          6           0       -5.140273    0.661723   -0.610070
     16          6           0       -4.986649   -0.172684    0.474310
     17          7           0       -3.788582   -0.594021    0.930240
     18          6           0       -2.648433   -0.192287    0.308883
     19          6           0        3.006976    0.922068    0.377677
     20          6           0        4.215887    1.295810   -0.213004
     21          1           0        5.701056    0.814026   -1.696631
     22          1           0        4.520760   -1.226963   -2.470181
     23          1           0        2.380669   -1.894619   -1.430847
     24          1           0        2.043823   -1.829255    2.076945
     25          1           0       -0.101414   -2.500440    3.134635
     26          1           0        0.546028    1.028652   -1.557323
     27          1           0       -1.638576    1.754047   -2.332312
     28          1           0       -4.086159    1.745734   -2.121330
     29          1           0       -6.124660    0.973019   -0.938827
     30          1           0       -5.844710   -0.541161    1.028881
     31          1           0        2.593817    1.534018    1.177218
     32          1           0        4.733092    2.188929    0.128141
 ---------------------------------------------------------------------
                    Distance matrix (angstroms):
                    1          2          3          4          5
     1  C    0.000000
     2  C    1.393548   0.000000
     3  C    2.416501   1.396443   0.000000
     4  C    2.809354   2.432735   1.403388   0.000000
     5  C    4.280800   3.781505   2.498298   1.471447   0.000000
     6  C    5.087352   4.576126   3.324597   2.458931   1.396406
     7  C    6.431475   5.874366   4.558783   3.715978   2.380811
     8  N    7.062536   6.479024   5.114065   4.254035   2.783597
     9  C    6.558473   5.995133   4.666581   3.816182   2.442670
    10  C    5.191890   4.675101   3.412366   2.540885   1.422802
    11  C    5.100622   4.663072   3.631242   2.972838   2.480375
    12  C    6.369010   5.933803   4.947823   4.360365   3.747397
    13  C    7.504910   7.002252   5.866863   5.192510   4.230978
    14  C    8.770010   8.277856   7.190890   6.566173   5.633459
    15  C    9.920517   9.386083   8.211094   7.539773   6.434222
    16  C    9.919746   9.344335   8.068880   7.331755   6.056954
    17  N    8.889157   8.303664   6.984573   6.203755   4.854746
    18  C    7.601347   7.043182   5.764619   4.987617   3.735387
    19  C    2.416498   2.788604   2.414098   1.403392   2.498301
    20  C    1.393545   2.413432   2.788606   2.432739   3.781508
    21  H    1.087051   2.153834   3.401839   3.896404   5.367850
    22  H    2.154062   1.086985   2.155613   3.415479   4.652331
    23  H    3.397500   2.149553   1.088325   2.164399   2.718712
    24  H    4.888466   4.441506   3.374053   2.678752   2.169121
    25  H    7.203443   6.652559   5.382915   4.605477   3.380695
    26  H    4.255563   3.917525   3.132468   2.648332   2.741266
    27  H    6.606543   6.243164   5.442259   4.984621   4.617679
    28  H    8.973209   8.530482   7.565507   7.020947   6.266431
    29  H   10.897441  10.371072   9.226247   8.581520   7.506154
    30  H   10.895795  10.302111   8.995472   8.247818   6.913143
    31  H    3.397496   3.876853   3.405399   2.164404   2.718716
    32  H    2.154062   3.398853   3.875592   3.415487   4.652338
                    6          7          8          9         10
     6  C    0.000000
     7  C    1.374147   0.000000
     8  N    2.394729   1.344768   0.000000
     9  C    2.781757   2.339659   1.356165   0.000000
    10  C    2.431592   2.745923   2.407141   1.419135   0.000000
    11  C    3.737542   4.153902   3.680726   2.438639   1.408802
    12  C    4.865847   4.985353   4.173097   2.816933   2.434742
    13  C    5.045819   4.776491   3.676382   2.436833   2.808416
    14  C    6.412659   6.028044   4.823498   3.714548   4.210941
    15  C    6.980570   6.335647   5.021231   4.198841   5.049730
    16  C    6.338951   5.482272   4.137531   3.642475   4.791635
    17  N    5.022574   4.133098   2.788331   2.412128   3.698833
    18  C    4.190761   3.626397   2.392940   1.409091   2.447821
    19  C    3.324656   4.558821   5.114059   4.666542   3.412320
    20  C    4.576173   5.874399   6.479020   5.995101   4.675065
    21  H    6.147456   7.500755   8.149412   7.632697   6.254903
    22  H    5.384431   6.637075   7.234624   6.757440   5.481084
    23  H    3.391757   4.446561   4.934129   4.539040   3.460579
    24  H    1.085176   2.136346   3.365140   3.866037   3.428343
    25  H    2.149445   1.085930   2.056833   3.291043   3.830333
    26  H    4.126932   4.826519   4.578247   3.434342   2.178075
    27  H    5.830404   6.045034   5.260717   3.904556   3.412218
    28  H    7.189368   6.941690   5.797133   4.603232   4.859538
    29  H    8.063546   7.397510   6.073091   5.281927   6.112538
    30  H    7.036578   6.035377   4.711876   4.470861   5.723425
    31  H    3.391858   4.446630   4.934118   4.538970   3.460499
    32  H    5.384508   6.637133   7.234621   6.757389   5.481028
                   11         12         13         14         15
    11  C    0.000000
    12  C    1.387544   0.000000
    13  C    2.406915   1.393875   0.000000
    14  C    3.688773   2.421687   1.402527   0.000000
    15  C    4.823582   3.688243   2.416678   1.386540   0.000000
    16  C    4.960369   4.121980   2.728105   2.363831   1.376850
    17  N    4.166421   3.672633   2.396113   2.769550   2.403439
    18  C    2.807544   2.441334   1.414715   2.430753   2.789816
    19  C    3.631167   4.947750   5.866798   7.190829   8.211034
    20  C    4.663007   5.933735   7.002191   8.277796   9.386025
    21  H    6.074522   7.289731   8.480656   9.707118  10.896707
    22  H    5.412169   6.603403   7.676909   8.904283  10.018118
    23  H    3.761542   4.961774   5.751479   7.037840   7.985808
    24  H    4.641275   5.852760   6.114354   7.489014   8.064506
    25  H    5.237297   6.025432   5.703303   6.880007   7.029381
    26  H    1.088636   2.128596   3.381159   4.548498   5.776326
    27  H    2.139521   1.087723   2.165437   2.670708   4.052304
    28  H    4.052956   2.670458   2.170720   1.087335   2.137789
    29  H    5.798471   4.577402   3.408760   2.159468   1.083515
    30  H    6.004559   5.206406   3.812700   3.365539   2.151586
    31  H    3.761417   4.961649   5.751364   7.037732   7.985702
    32  H    5.412065   6.603288   7.676806   8.904178  10.018016
                   16         17         18         19         20
    16  C    0.000000
    17  N    1.349356   0.000000
    18  C    2.344142   1.359196   0.000000
    19  C    8.068820   6.984516   5.764562   0.000000
    20  C    9.344279   8.303614   7.043131   1.396444   0.000000
    21  H   10.950508   9.946672   8.645734   3.401837   2.153831
    22  H   10.008614   9.000480   7.758291   3.875586   3.398850
    23  H    7.802055   6.732455   5.587170   3.405399   3.876855
    24  H    7.398662   6.071053   5.274749   3.374159   4.441594
    25  H    6.030033   4.699893   4.449691   5.382979   6.652616
    26  H    6.015086   5.254511   3.895895   3.132388   3.917453
    27  H    4.774831   4.558530   3.432774   5.442185   6.243091
    28  H    3.350904   3.856824   3.424751   7.565449   8.530422
    29  H    2.145848   3.377320   3.872838   9.226188  10.371014
    30  H    1.086090   2.059171   3.294889   8.995412  10.302056
    31  H    7.801947   6.732352   5.587067   1.088325   2.149552
    32  H   10.008518   9.000395   7.758207   2.155617   1.086988
                   21         22         23         24         25
    21  H    0.000000
    22  H    2.481353   0.000000
    23  H    4.293293   2.471025   0.000000
    24  H    5.882360   5.212900   3.524535   0.000000
    25  H    8.245936   7.375649   5.231767   2.484198   0.000000
    26  H    5.161374   4.660430   3.453610   4.859931   5.906619
    27  H    7.426838   6.844184   5.502703   6.770647   7.095846
    28  H    9.840631   9.112501   7.453107   8.245165   7.844320
    29  H   11.851038  10.977701   8.989219   9.147226   8.058381
    30  H   11.940253  10.961601   8.691316   8.061425   6.423272
    31  H    4.293289   4.963834   4.313119   3.524714   5.231883
    32  H    2.481351   4.297055   4.963840   5.213042   7.375747
                   26         27         28         29         30
    26  H    0.000000
    27  H    2.428847   0.000000
    28  H    4.721172   2.456673   0.000000
    29  H    6.699530   4.762011   2.480098   0.000000
    30  H    7.070664   5.852961   4.271559   2.498597   0.000000
    31  H    3.453484   5.502578   7.453007   8.989116   8.691208
    32  H    4.660316   6.844056   9.112394  10.977598  10.961506
                   31         32
    31  H    0.000000
    32  H    2.471027   0.000000
 Stoichiometry    C18H12N2
 Framework group  C1[X(C18H12N2)]
 Deg. of freedom    90
 Full point group                 C1      NOp   1
 Largest Abelian subgroup         C1      NOp   1
 Largest concise Abelian subgroup C1      NOp   1
                         Standard orientation:                         
 ---------------------------------------------------------------------
 Center     Atomic      Atomic             Coordinates (Angstroms)
 Number     Number       Type             X           Y           Z
 ---------------------------------------------------------------------
      1          6           0       -5.036011   -1.108849    0.000009
      2          6           0       -4.416784   -0.788904   -1.206709
      3          6           0       -3.175605   -0.148960   -1.207043
      4          6           0       -2.537858    0.176335    0.000003
      5          6           0       -1.230621    0.851826    0.000002
      6          6           0       -1.213464    2.248127   -0.000012
      7          6           0        0.002348    2.888502   -0.000003
      8          7           0        1.181256    2.241525    0.000024
      9          6           0        1.211814    0.885704    0.000023
     10          6           0        0.002803    0.142579    0.000008
     11          6           0        0.062221   -1.264969   -0.000012
     12          6           0        1.279788   -1.930408   -0.000036
     13          6           0        2.468318   -1.202202   -0.000022
     14          6           0        3.700762   -1.871651   -0.000058
     15          6           0        4.884422   -1.149540   -0.000033
     16          6           0        4.793741    0.224320    0.000031
     17          7           0        3.623917    0.896833    0.000054
     18          6           0        2.449629    0.212390    0.000023
     19          6           0       -3.175546   -0.149072    1.207055
     20          6           0       -4.416719   -0.789027    1.206723
     21          1           0       -6.002720   -1.605993    0.000010
     22          1           0       -4.899945   -1.036059   -2.148519
     23          1           0       -2.703232    0.095470   -2.156554
     24          1           0       -2.133034    2.824321   -0.000031
     25          1           0        0.069994    3.972322   -0.000026
     26          1           0       -0.847727   -1.862567   -0.000026
     27          1           0        1.288637   -3.018096   -0.000069
     28          1           0        3.744578   -2.958103   -0.000111
     29          1           0        5.848255   -1.644546   -0.000059
     30          1           0        5.682521    0.848548    0.000059
     31          1           0       -2.703131    0.095275    2.156565
     32          1           0       -4.899825   -1.036293    2.148536
 ---------------------------------------------------------------------
 Rotational constants (GHZ):           0.8807543           0.2008733           0.1735193
 Leave Link  202 at Fri Jun  5 16:56:57 2026, MaxMem=  1258291200 cpu:               0.0 elap:               0.1
 (Enter /apl/gaussian/16c02/g16/l301.exe)
 Standard basis: 6-31G(d) (6D, 7F)
 Ernie: Thresh=  0.10000D-02 Tol=  0.10000D-05 Strict=F.
 There are   324 symmetry adapted cartesian basis functions of A   symmetry.
 There are   324 symmetry adapted basis functions of A   symmetry.
   324 basis functions,   608 primitive gaussians,   324 cartesian basis functions
    67 alpha electrons       67 beta electrons
       nuclear repulsion energy      1351.7890540592 Hartrees.
 IExCor=  402 DFT=T Ex+Corr=B3LYP ExCW=0 ScaHFX=  0.200000
 ScaDFX=  0.800000  0.720000  1.000000  0.810000 ScalE2=  1.000000  1.000000
 IRadAn=      5 IRanWt=     -1 IRanGd=            0 ICorTp=0 IEmpDi=  4
 NAtoms=   32 NActive=   32 NUniq=   32 SFac= 1.00D+00 NAtFMM=   60 NAOKFM=F Big=F
 Integral buffers will be    131072 words long.
 Raffenetti 2 integral format.
 Two-electron integral symmetry is turned on.
 Leave Link  301 at Fri Jun  5 16:56:57 2026, MaxMem=  1258291200 cpu:               0.0 elap:               0.1
 (Enter /apl/gaussian/16c02/g16/l302.exe)
 NPDir=0 NMtPBC=     1 NCelOv=     1 NCel=       1 NClECP=     1 NCelD=      1
         NCelK=      1 NCelE2=     1 NClLst=     1 CellRange=     0.0.
 One-electron integrals computed using PRISM.
 One-electron integral symmetry used in STVInt
 NBasis=   324 RedAO= T EigKep=  2.49D-04  NBF=   324
 NBsUse=   324 1.00D-06 EigRej= -1.00D+00 NBFU=   324
 Precomputing XC quadrature grid using
 IXCGrd= 4 IRadAn=           5 IRanWt=          -1 IRanGd=           0 AccXCQ= 0.00D+00.
 Generated NRdTot=       0 NPtTot=           0 NUsed=           0 NTot=          32
 NSgBfM=   323   323   323   323   323 MxSgAt=    32 MxSgA2=    32.
 Leave Link  302 at Fri Jun  5 16:56:58 2026, MaxMem=  1258291200 cpu:               1.5 elap:               0.3
 (Enter /apl/gaussian/16c02/g16/l303.exe)
 DipDrv:  MaxL=1.
 Leave Link  303 at Fri Jun  5 16:56:58 2026, MaxMem=  1258291200 cpu:               0.1 elap:               0.1
 (Enter /apl/gaussian/16c02/g16/l401.exe)
 ExpMin= 1.61D-01 ExpMax= 4.17D+03 ExpMxC= 6.27D+02 IAcc=3 IRadAn=         5 AccDes= 0.00D+00
 Harris functional with IExCor=  402 and IRadAn=       5 diagonalized for initial guess.
 HarFok:  IExCor=  402 AccDes= 0.00D+00 IRadAn=         5 IDoV= 1 UseB2=F ITyADJ=14
 ICtDFT=  3500011 ScaDFX=  1.000000  1.000000  1.000000  1.000000
 FoFCou: FMM=F IPFlag=           0 FMFlag=      100000 FMFlg1=           0
         NFxFlg=           0 DoJE=T BraDBF=F KetDBF=T FulRan=T
         wScrn=  0.000000 ICntrl=       500 IOpCl=  0 I1Cent=   200000004 NGrid=           0
         NMat0=    1 NMatS0=      1 NMatT0=    0 NMatD0=    1 NMtDS0=    0 NMtDT0=    0
 Petite list used in FoFCou.
 Harris En= -802.626398901486    
 JPrj=0 DoOrth=F DoCkMO=F.
 Leave Link  401 at Fri Jun  5 16:56:59 2026, MaxMem=  1258291200 cpu:               9.2 elap:               1.2
 (Enter /apl/gaussian/16c02/g16/l502.exe)
 Integral symmetry usage will be decided dynamically.
 Closed shell SCF:
 Using DIIS extrapolation, IDIIS=  1040.
 NGot=  1258291200 LenX=  1258074454 LenY=  1257969037
 Requested convergence on RMS density matrix=1.00D-08 within 128 cycles.
 Requested convergence on MAX density matrix=1.00D-06.
 Requested convergence on             energy=1.00D-06.
 No special actions if energy rises.
 Fock matrices will be formed incrementally for  20 cycles.
 Integral accuracy reduced to 1.0D-05 until final iterations.

 Cycle   1  Pass 0  IDiag  1:
 FoFJK:  IHMeth= 1 ICntrl=       0 DoSepK=F KAlg= 0 I1Cent=           0 FoldK=F
 IRaf= 770000000 NMat=       1 IRICut=       1 DoRegI=T DoRafI=F ISym2E= 0 IDoP0=0 IntGTp=1.
 FoFCou: FMM=F IPFlag=           0 FMFlag=      100000 FMFlg1=           0
         NFxFlg=           0 DoJE=F BraDBF=F KetDBF=F FulRan=T
         wScrn=  0.000000 ICntrl=         0 IOpCl=  0 I1Cent=           0 NGrid=           0
         NMat0=    1 NMatS0=      1 NMatT0=    0 NMatD0=    1 NMtDS0=    0 NMtDT0=    0
 Symmetry not used in FoFCou.
 E= -802.309637577085    
 DIIS: error= 3.71D-02 at cycle   1 NSaved=   1.
 NSaved= 1 IEnMin= 1 EnMin= -802.309637577085     IErMin= 1 ErrMin= 3.71D-02
 ErrMax= 3.71D-02  0.00D+00 EMaxC= 1.00D-01 BMatC= 3.17D-01 BMatP= 3.17D-01
 IDIUse=3 WtCom= 6.29D-01 WtEn= 3.71D-01
 Coeff-Com:  0.100D+01
 Coeff-En:   0.100D+01
 Coeff:      0.100D+01
 Gap=     0.170 Goal=   None    Shift=    0.000
 GapD=    0.170 DampG=1.000 DampE=0.500 DampFc=0.5000 IDamp=-1.
 Damping current iteration by 5.00D-01
 RMSDP=4.59D-03 MaxDP=1.46D-01              OVMax= 1.45D-01

 Cycle   2  Pass 0  IDiag  1:
 RMSU=  2.18D-03    CP:  9.64D-01
 E= -802.480936504437     Delta-E=       -0.171298927351 Rises=F Damp=T
 DIIS: error= 7.65D-03 at cycle   2 NSaved=   2.
 NSaved= 2 IEnMin= 2 EnMin= -802.480936504437     IErMin= 2 ErrMin= 7.65D-03
 ErrMax= 7.65D-03  0.00D+00 EMaxC= 1.00D-01 BMatC= 2.16D-02 BMatP= 3.17D-01
 IDIUse=3 WtCom= 9.23D-01 WtEn= 7.65D-02
 Coeff-Com: -0.611D-01 0.106D+01
 Coeff-En:   0.000D+00 0.100D+01
 Coeff:     -0.564D-01 0.106D+01
 Gap=     0.176 Goal=   None    Shift=    0.000
 RMSDP=1.37D-03 MaxDP=3.90D-02 DE=-1.71D-01 OVMax= 8.70D-02

 Cycle   3  Pass 0  IDiag  1:
 RMSU=  1.29D-03    CP:  9.45D-01  1.13D+00
 E= -802.641216806117     Delta-E=       -0.160280301680 Rises=F Damp=F
 DIIS: error= 6.04D-03 at cycle   3 NSaved=   3.
 NSaved= 3 IEnMin= 3 EnMin= -802.641216806117     IErMin= 3 ErrMin= 6.04D-03
 ErrMax= 6.04D-03  0.00D+00 EMaxC= 1.00D-01 BMatC= 1.19D-02 BMatP= 2.16D-02
 IDIUse=3 WtCom= 9.40D-01 WtEn= 6.04D-02
 Coeff-Com: -0.788D-01 0.464D+00 0.614D+00
 Coeff-En:   0.000D+00 0.000D+00 0.100D+01
 Coeff:     -0.741D-01 0.436D+00 0.638D+00
 Gap=     0.170 Goal=   None    Shift=    0.000
 RMSDP=6.34D-04 MaxDP=2.19D-02 DE=-1.60D-01 OVMax= 5.54D-02

 Cycle   4  Pass 0  IDiag  1:
 RMSU=  5.60D-04    CP:  9.46D-01  1.17D+00  7.79D-01
 E= -802.646711024340     Delta-E=       -0.005494218223 Rises=F Damp=F
 DIIS: error= 4.00D-03 at cycle   4 NSaved=   4.
 NSaved= 4 IEnMin= 4 EnMin= -802.646711024340     IErMin= 4 ErrMin= 4.00D-03
 ErrMax= 4.00D-03  0.00D+00 EMaxC= 1.00D-01 BMatC= 5.95D-03 BMatP= 1.19D-02
 IDIUse=3 WtCom= 9.60D-01 WtEn= 4.00D-02
 Coeff-Com: -0.382D-01 0.149D+00 0.431D+00 0.458D+00
 Coeff-En:   0.000D+00 0.000D+00 0.377D+00 0.623D+00
 Coeff:     -0.366D-01 0.143D+00 0.429D+00 0.465D+00
 Gap=     0.169 Goal=   None    Shift=    0.000
 RMSDP=3.60D-04 MaxDP=1.19D-02 DE=-5.49D-03 OVMax= 3.38D-02

 Cycle   5  Pass 0  IDiag  1:
 RMSU=  1.64D-04    CP:  9.45D-01  1.17D+00  8.09D-01  4.31D-01
 E= -802.652929944280     Delta-E=       -0.006218919940 Rises=F Damp=F
 DIIS: error= 1.12D-03 at cycle   5 NSaved=   5.
 NSaved= 5 IEnMin= 5 EnMin= -802.652929944280     IErMin= 5 ErrMin= 1.12D-03
 ErrMax= 1.12D-03  0.00D+00 EMaxC= 1.00D-01 BMatC= 4.93D-04 BMatP= 5.95D-03
 IDIUse=3 WtCom= 9.89D-01 WtEn= 1.12D-02
 Coeff-Com: -0.156D-01 0.473D-01 0.207D+00 0.291D+00 0.470D+00
 Coeff-En:   0.000D+00 0.000D+00 0.000D+00 0.286D-01 0.971D+00
 Coeff:     -0.155D-01 0.467D-01 0.205D+00 0.288D+00 0.476D+00
 Gap=     0.167 Goal=   None    Shift=    0.000
 RMSDP=1.00D-04 MaxDP=3.73D-03 DE=-6.22D-03 OVMax= 1.10D-02

 Cycle   6  Pass 0  IDiag  1:
 RMSU=  6.09D-05    CP:  9.45D-01  1.17D+00  8.13D-01  4.84D-01  5.53D-01
 E= -802.653422622690     Delta-E=       -0.000492678410 Rises=F Damp=F
 DIIS: error= 3.94D-04 at cycle   6 NSaved=   6.
 NSaved= 6 IEnMin= 6 EnMin= -802.653422622690     IErMin= 6 ErrMin= 3.94D-04
 ErrMax= 3.94D-04  0.00D+00 EMaxC= 1.00D-01 BMatC= 5.30D-05 BMatP= 4.93D-04
 IDIUse=3 WtCom= 9.96D-01 WtEn= 3.94D-03
 Coeff-Com: -0.476D-02 0.100D-01 0.708D-01 0.118D+00 0.292D+00 0.514D+00
 Coeff-En:   0.000D+00 0.000D+00 0.000D+00 0.000D+00 0.768D-01 0.923D+00
 Coeff:     -0.474D-02 0.999D-02 0.705D-01 0.117D+00 0.291D+00 0.516D+00
 Gap=     0.167 Goal=   None    Shift=    0.000
 RMSDP=3.18D-05 MaxDP=1.17D-03 DE=-4.93D-04 OVMax= 3.27D-03

 Cycle   7  Pass 0  IDiag  1:
 RMSU=  1.36D-05    CP:  9.45D-01  1.17D+00  8.18D-01  4.92D-01  6.17D-01
                    CP:  5.78D-01
 E= -802.653475122316     Delta-E=       -0.000052499626 Rises=F Damp=F
 DIIS: error= 1.06D-04 at cycle   7 NSaved=   7.
 NSaved= 7 IEnMin= 7 EnMin= -802.653475122316     IErMin= 7 ErrMin= 1.06D-04
 ErrMax= 1.06D-04  0.00D+00 EMaxC= 1.00D-01 BMatC= 3.84D-06 BMatP= 5.30D-05
 IDIUse=3 WtCom= 9.99D-01 WtEn= 1.06D-03
 Coeff-Com: -0.209D-02 0.364D-02 0.325D-01 0.568D-01 0.154D+00 0.314D+00
 Coeff-Com:  0.441D+00
 Coeff-En:   0.000D+00 0.000D+00 0.000D+00 0.000D+00 0.000D+00 0.000D+00
 Coeff-En:   0.100D+01
 Coeff:     -0.208D-02 0.363D-02 0.325D-01 0.568D-01 0.154D+00 0.314D+00
 Coeff:      0.442D+00
 Gap=     0.167 Goal=   None    Shift=    0.000
 RMSDP=8.49D-06 MaxDP=3.21D-04 DE=-5.25D-05 OVMax= 9.44D-04

 Initial convergence to 1.0D-05 achieved.  Increase integral accuracy.
 Cycle   8  Pass 1  IDiag  1:
 E= -802.653442664467     Delta-E=        0.000032457850 Rises=F Damp=F
 DIIS: error= 1.13D-04 at cycle   1 NSaved=   1.
 NSaved= 1 IEnMin= 1 EnMin= -802.653442664467     IErMin= 1 ErrMin= 1.13D-04
 ErrMax= 1.13D-04  0.00D+00 EMaxC= 1.00D-01 BMatC= 1.41D-06 BMatP= 1.41D-06
 IDIUse=3 WtCom= 9.99D-01 WtEn= 1.13D-03
 Coeff-Com:  0.100D+01
 Coeff-En:   0.100D+01
 Coeff:      0.100D+01
 Gap=     0.167 Goal=   None    Shift=    0.000
 RMSDP=8.49D-06 MaxDP=3.21D-04 DE= 3.25D-05 OVMax= 7.96D-04

 Cycle   9  Pass 1  IDiag  1:
 RMSU=  6.06D-05    CP:  1.00D+00
 E= -802.653441590347     Delta-E=        0.000001074120 Rises=F Damp=F
 DIIS: error= 9.03D-05 at cycle   2 NSaved=   2.
 NSaved= 2 IEnMin= 1 EnMin= -802.653442664467     IErMin= 2 ErrMin= 9.03D-05
 ErrMax= 9.03D-05  0.00D+00 EMaxC= 1.00D-01 BMatC= 2.29D-06 BMatP= 1.41D-06
 IDIUse=1 WtCom= 1.00D+00 WtEn= 0.00D+00
 Coeff-Com:  0.578D+00 0.422D+00
 Coeff:      0.578D+00 0.422D+00
 Gap=     0.167 Goal=   None    Shift=    0.000
 RMSDP=7.83D-06 MaxDP=3.58D-04 DE= 1.07D-06 OVMax= 8.15D-04

 Cycle  10  Pass 1  IDiag  1:
 RMSU=  7.78D-06    CP:  1.00D+00  9.86D-01
 E= -802.653443473773     Delta-E=       -0.000001883426 Rises=F Damp=F
 DIIS: error= 4.24D-05 at cycle   3 NSaved=   3.
 NSaved= 3 IEnMin= 3 EnMin= -802.653443473773     IErMin= 3 ErrMin= 4.24D-05
 ErrMax= 4.24D-05  0.00D+00 EMaxC= 1.00D-01 BMatC= 4.43D-07 BMatP= 1.41D-06
 IDIUse=1 WtCom= 1.00D+00 WtEn= 0.00D+00
 Coeff-Com:  0.113D-01 0.304D+00 0.685D+00
 Coeff:      0.113D-01 0.304D+00 0.685D+00
 Gap=     0.167 Goal=   None    Shift=    0.000
 RMSDP=2.66D-06 MaxDP=9.97D-05 DE=-1.88D-06 OVMax= 2.81D-04

 Cycle  11  Pass 1  IDiag  1:
 RMSU=  8.51D-07    CP:  1.00D+00  9.99D-01  6.92D-01
 E= -802.653443917088     Delta-E=       -0.000000443315 Rises=F Damp=F
 DIIS: error= 6.17D-06 at cycle   4 NSaved=   4.
 NSaved= 4 IEnMin= 4 EnMin= -802.653443917088     IErMin= 4 ErrMin= 6.17D-06
 ErrMax= 6.17D-06  0.00D+00 EMaxC= 1.00D-01 BMatC= 2.01D-08 BMatP= 4.43D-07
 IDIUse=1 WtCom= 1.00D+00 WtEn= 0.00D+00
 Coeff-Com: -0.257D-02 0.188D+00 0.441D+00 0.374D+00
 Coeff:     -0.257D-02 0.188D+00 0.441D+00 0.374D+00
 Gap=     0.167 Goal=   None    Shift=    0.000
 RMSDP=5.59D-07 MaxDP=2.63D-05 DE=-4.43D-07 OVMax= 5.81D-05

 Cycle  12  Pass 1  IDiag  1:
 RMSU=  1.95D-07    CP:  1.00D+00  9.99D-01  7.05D-01  3.96D-01
 E= -802.653443938260     Delta-E=       -0.000000021172 Rises=F Damp=F
 DIIS: error= 1.33D-06 at cycle   5 NSaved=   5.
 NSaved= 5 IEnMin= 5 EnMin= -802.653443938260     IErMin= 5 ErrMin= 1.33D-06
 ErrMax= 1.33D-06  0.00D+00 EMaxC= 1.00D-01 BMatC= 7.14D-10 BMatP= 2.01D-08
 IDIUse=1 WtCom= 1.00D+00 WtEn= 0.00D+00
 Coeff-Com: -0.218D-02 0.105D+00 0.248D+00 0.237D+00 0.413D+00
 Coeff:     -0.218D-02 0.105D+00 0.248D+00 0.237D+00 0.413D+00
 Gap=     0.167 Goal=   None    Shift=    0.000
 RMSDP=1.15D-07 MaxDP=3.78D-06 DE=-2.12D-08 OVMax= 1.14D-05

 Cycle  13  Pass 1  IDiag  1:
 RMSU=  7.19D-08    CP:  1.00D+00  9.99D-01  7.04D-01  4.26D-01  5.63D-01
 E= -802.653443939032     Delta-E=       -0.000000000771 Rises=F Damp=F
 DIIS: error= 3.95D-07 at cycle   6 NSaved=   6.
 NSaved= 6 IEnMin= 6 EnMin= -802.653443939032     IErMin= 6 ErrMin= 3.95D-07
 ErrMax= 3.95D-07  0.00D+00 EMaxC= 1.00D-01 BMatC= 3.93D-11 BMatP= 7.14D-10
 IDIUse=1 WtCom= 1.00D+00 WtEn= 0.00D+00
 Coeff-Com: -0.100D-02 0.441D-01 0.103D+00 0.102D+00 0.240D+00 0.512D+00
 Coeff:     -0.100D-02 0.441D-01 0.103D+00 0.102D+00 0.240D+00 0.512D+00
 Gap=     0.167 Goal=   None    Shift=    0.000
 RMSDP=2.97D-08 MaxDP=9.22D-07 DE=-7.71D-10 OVMax= 2.73D-06

 Cycle  14  Pass 1  IDiag  1:
 RMSU=  2.17D-08    CP:  1.00D+00  9.99D-01  7.03D-01  4.21D-01  6.00D-01
                    CP:  7.59D-01
 E= -802.653443939073     Delta-E=       -0.000000000042 Rises=F Damp=F
 DIIS: error= 7.59D-08 at cycle   7 NSaved=   7.
 NSaved= 7 IEnMin= 7 EnMin= -802.653443939073     IErMin= 7 ErrMin= 7.59D-08
 ErrMax= 7.59D-08  0.00D+00 EMaxC= 1.00D-01 BMatC= 3.09D-12 BMatP= 3.93D-11
 IDIUse=1 WtCom= 1.00D+00 WtEn= 0.00D+00
 Coeff-Com: -0.327D-03 0.132D-01 0.306D-01 0.308D-01 0.850D-01 0.276D+00
 Coeff-Com:  0.564D+00
 Coeff:     -0.327D-03 0.132D-01 0.306D-01 0.308D-01 0.850D-01 0.276D+00
 Coeff:      0.564D+00
 Gap=     0.167 Goal=   None    Shift=    0.000
 RMSDP=7.47D-09 MaxDP=2.28D-07 DE=-4.18D-11 OVMax= 5.51D-07

 SCF Done:  E(RB3LYP) =  -802.653443939     A.U. after   14 cycles
            NFock= 14  Conv=0.75D-08     -V/T= 2.0093
 KE= 7.952392185535D+02 PE=-4.564193036966D+03 EE= 1.614511320414D+03
 Leave Link  502 at Fri Jun  5 16:57:24 2026, MaxMem=  1258291200 cpu:             180.0 elap:              24.5
 (Enter /apl/gaussian/16c02/g16/l601.exe)
 Copying SCF densities to generalized density rwf, IOpCl= 0 IROHF=0.

 **********************************************************************

            Population analysis using the SCF Density.

 **********************************************************************

 Orbital symmetries:
       Occupied  (A) (A) (A) (A) (A) (A) (A) (A) (A) (A) (A) (A)
                 (A) (A) (A) (A) (A) (A) (A) (A) (A) (A) (A) (A)
                 (A) (A) (A) (A) (A) (A) (A) (A) (A) (A) (A) (A)
                 (A) (A) (A) (A) (A) (A) (A) (A) (A) (A) (A) (A)
                 (A) (A) (A) (A) (A) (A) (A) (A) (A) (A) (A) (A)
                 (A) (A) (A) (A) (A) (A) (A)
       Virtual   (A) (A) (A) (A) (A) (A) (A) (A) (A) (A) (A) (A)
                 (A) (A) (A) (A) (A) (A) (A) (A) (A) (A) (A) (A)
                 (A) (A) (A) (A) (A) (A) (A) (A) (A) (A) (A) (A)
                 (A) (A) (A) (A) (A) (A) (A) (A) (A) (A) (A) (A)
                 (A) (A) (A) (A) (A) (A) (A) (A) (A) (A) (A) (A)
                 (A) (A) (A) (A) (A) (A) (A) (A) (A) (A) (A) (A)
                 (A) (A) (A) (A) (A) (A) (A) (A) (A) (A) (A) (A)
                 (A) (A) (A) (A) (A) (A) (A) (A) (A) (A) (A) (A)
                 (A) (A) (A) (A) (A) (A) (A) (A) (A) (A) (A) (A)
                 (A) (A) (A) (A) (A) (A) (A) (A) (A) (A) (A) (A)
                 (A) (A) (A) (A) (A) (A) (A) (A) (A) (A) (A) (A)
                 (A) (A) (A) (A) (A) (A) (A) (A) (A) (A) (A) (A)
                 (A) (A) (A) (A) (A) (A) (A) (A) (A) (A) (A) (A)
                 (A) (A) (A) (A) (A) (A) (A) (A) (A) (A) (A) (A)
                 (A) (A) (A) (A) (A) (A) (A) (A) (A) (A) (A) (A)
                 (A) (A) (A) (A) (A) (A) (A) (A) (A) (A) (A) (A)
                 (A) (A) (A) (A) (A) (A) (A) (A) (A) (A) (A) (A)
                 (A) (A) (A) (A) (A) (A) (A) (A) (A) (A) (A) (A)
                 (A) (A) (A) (A) (A) (A) (A) (A) (A) (A) (A) (A)
                 (A) (A) (A) (A) (A) (A) (A) (A) (A) (A) (A) (A)
                 (A) (A) (A) (A) (A) (A) (A) (A) (A) (A) (A) (A)
                 (A) (A) (A) (A) (A)
 The electronic state is 1-A.
 Alpha  occ. eigenvalues --  -14.32213 -14.32033 -10.22290 -10.22226 -10.21931
 Alpha  occ. eigenvalues --  -10.21837 -10.21504 -10.20658 -10.20586 -10.20548
 Alpha  occ. eigenvalues --  -10.20136 -10.19789 -10.19787 -10.19739 -10.19699
 Alpha  occ. eigenvalues --  -10.19685 -10.19668 -10.19664 -10.19586 -10.19581
 Alpha  occ. eigenvalues --   -0.94708  -0.92136  -0.86737  -0.84796  -0.81448
 Alpha  occ. eigenvalues --   -0.80475  -0.75588  -0.75119  -0.75056  -0.73328
 Alpha  occ. eigenvalues --   -0.66442  -0.64815  -0.63035  -0.61676  -0.61080
 Alpha  occ. eigenvalues --   -0.57940  -0.55120  -0.53774  -0.51761  -0.50720
 Alpha  occ. eigenvalues --   -0.48969  -0.48322  -0.46480  -0.45855  -0.45224
 Alpha  occ. eigenvalues --   -0.44176  -0.42653  -0.42239  -0.42019  -0.41177
 Alpha  occ. eigenvalues --   -0.40917  -0.39982  -0.38061  -0.37654  -0.36450
 Alpha  occ. eigenvalues --   -0.35247  -0.35206  -0.34791  -0.33359  -0.29979
 Alpha  occ. eigenvalues --   -0.28478  -0.25761  -0.25464  -0.24947  -0.24426
 Alpha  occ. eigenvalues --   -0.23268  -0.22218
 Alpha virt. eigenvalues --   -0.05488  -0.05211  -0.00887  -0.00876   0.00141
 Alpha virt. eigenvalues --    0.02799   0.07045   0.08902   0.09734   0.11921
 Alpha virt. eigenvalues --    0.12766   0.13312   0.14012   0.14764   0.15130
 Alpha virt. eigenvalues --    0.15362   0.17058   0.17810   0.18035   0.18443
 Alpha virt. eigenvalues --    0.18918   0.21984   0.22236   0.23989   0.25440
 Alpha virt. eigenvalues --    0.26806   0.28268   0.29533   0.30083   0.30226
 Alpha virt. eigenvalues --    0.31746   0.32689   0.33811   0.34202   0.34599
 Alpha virt. eigenvalues --    0.38207   0.40466   0.42874   0.45172   0.45249
 Alpha virt. eigenvalues --    0.46511   0.48317   0.49645   0.50467   0.51357
 Alpha virt. eigenvalues --    0.52497   0.52857   0.53716   0.53862   0.54104
 Alpha virt. eigenvalues --    0.55459   0.55522   0.55668   0.56417   0.57181
 Alpha virt. eigenvalues --    0.58149   0.58372   0.58901   0.59245   0.59486
 Alpha virt. eigenvalues --    0.59521   0.59856   0.60174   0.61017   0.61204
 Alpha virt. eigenvalues --    0.61874   0.62361   0.63577   0.64936   0.65439
 Alpha virt. eigenvalues --    0.66447   0.66563   0.67408   0.68446   0.68622
 Alpha virt. eigenvalues --    0.71042   0.72535   0.74650   0.74981   0.77068
 Alpha virt. eigenvalues --    0.80771   0.81098   0.81187   0.82154   0.82295
 Alpha virt. eigenvalues --    0.82869   0.83222   0.83380   0.84064   0.84579
 Alpha virt. eigenvalues --    0.85326   0.86198   0.86639   0.87790   0.88411
 Alpha virt. eigenvalues --    0.89115   0.90332   0.91062   0.92208   0.93982
 Alpha virt. eigenvalues --    0.95082   0.95241   0.96363   0.97843   0.99616
 Alpha virt. eigenvalues --    1.01262   1.01430   1.04164   1.05693   1.07650
 Alpha virt. eigenvalues --    1.09043   1.10654   1.11638   1.12967   1.14578
 Alpha virt. eigenvalues --    1.16988   1.17093   1.17372   1.19368   1.20244
 Alpha virt. eigenvalues --    1.22090   1.22757   1.24530   1.25616   1.26749
 Alpha virt. eigenvalues --    1.28013   1.33561   1.36151   1.36610   1.36616
 Alpha virt. eigenvalues --    1.38537   1.40569   1.43027   1.43088   1.44288
 Alpha virt. eigenvalues --    1.44357   1.45819   1.47513   1.48016   1.48384
 Alpha virt. eigenvalues --    1.49752   1.50235   1.50616   1.51793   1.52113
 Alpha virt. eigenvalues --    1.52346   1.54616   1.60403   1.65585   1.68770
 Alpha virt. eigenvalues --    1.69351   1.70758   1.73721   1.75741   1.77152
 Alpha virt. eigenvalues --    1.78705   1.79609   1.81167   1.84210   1.85245
 Alpha virt. eigenvalues --    1.86203   1.87563   1.87890   1.88641   1.89567
 Alpha virt. eigenvalues --    1.92306   1.93376   1.96025   1.96169   1.96708
 Alpha virt. eigenvalues --    1.97410   1.99351   2.00367   2.02532   2.04191
 Alpha virt. eigenvalues --    2.05483   2.07390   2.10400   2.12782   2.13522
 Alpha virt. eigenvalues --    2.14700   2.15458   2.17521   2.18905   2.19991
 Alpha virt. eigenvalues --    2.20038   2.22299   2.23294   2.24718   2.25190
 Alpha virt. eigenvalues --    2.26805   2.27243   2.28984   2.31279   2.32124
 Alpha virt. eigenvalues --    2.33345   2.33935   2.36944   2.38120   2.38184
 Alpha virt. eigenvalues --    2.38850   2.43366   2.43833   2.44411   2.49426
 Alpha virt. eigenvalues --    2.55614   2.56766   2.59378   2.62855   2.63298
 Alpha virt. eigenvalues --    2.64962   2.65075   2.66903   2.67013   2.69403
 Alpha virt. eigenvalues --    2.70891   2.72677   2.73513   2.74348   2.74994
 Alpha virt. eigenvalues --    2.76688   2.78820   2.81982   2.83021   2.85185
 Alpha virt. eigenvalues --    2.87397   2.89374   2.92936   2.99020   3.03706
 Alpha virt. eigenvalues --    3.06045   3.09403   3.14497   3.35973   3.41302
 Alpha virt. eigenvalues --    3.47653   3.54037   4.05087   4.08667   4.09007
 Alpha virt. eigenvalues --    4.10067   4.10747   4.11621   4.13946   4.18739
 Alpha virt. eigenvalues --    4.20236   4.26166   4.27416   4.32188   4.34082
 Alpha virt. eigenvalues --    4.36329   4.40756   4.42377   4.59499   4.62205
 Alpha virt. eigenvalues --    4.71952   4.88552
          Condensed to atoms (all electrons):
               1          2          3          4          5          6
     1  C    4.846234   0.551514  -0.037696  -0.032673   0.000651   0.000033
     2  C    0.551514   4.873931   0.515891  -0.019887   0.005685   0.000015
     3  C   -0.037696   0.515891   4.941912   0.537233  -0.046961  -0.001202
     4  C   -0.032673  -0.019887   0.537233   4.860513   0.324415  -0.083159
     5  C    0.000651   0.005685  -0.046961   0.324415   5.048015   0.489477
     6  C    0.000033   0.000015  -0.001202  -0.083159   0.489477   5.116981
     7  C   -0.000000   0.000003   0.000040   0.007837  -0.009430   0.415807
     8  N    0.000000  -0.000000   0.000006  -0.000110  -0.062183  -0.015166
     9  C   -0.000000   0.000004  -0.000141   0.009671  -0.013814  -0.061594
    10  C    0.000035   0.000110  -0.003091  -0.057896   0.439122   0.010835
    11  C   -0.000016  -0.000181   0.000951  -0.017741  -0.101582   0.013448
    12  C   -0.000001  -0.000004   0.000056   0.000686   0.008807  -0.000312
    13  C    0.000000   0.000000  -0.000000   0.000024   0.000275  -0.000107
    14  C   -0.000000   0.000000   0.000000   0.000000  -0.000010  -0.000000
    15  C   -0.000000  -0.000000   0.000000  -0.000000  -0.000000  -0.000000
    16  C    0.000000  -0.000000  -0.000000  -0.000000   0.000004   0.000000
    17  N   -0.000000   0.000000   0.000000   0.000000  -0.000062  -0.000018
    18  C    0.000000  -0.000000  -0.000002  -0.000102   0.011045  -0.000868
    19  C   -0.037696  -0.046106  -0.040621   0.537230  -0.046961  -0.001201
    20  C    0.551514  -0.026400  -0.046105  -0.019887   0.005685   0.000015
    21  H    0.359112  -0.043263   0.004911   0.000567   0.000002   0.000000
    22  H   -0.042828   0.357366  -0.038844   0.003747  -0.000185  -0.000002
    23  H    0.004780  -0.043291   0.357685  -0.046241  -0.004458   0.001431
    24  H   -0.000007  -0.000086   0.001420  -0.003811  -0.040520   0.347836
    25  H    0.000000  -0.000000  -0.000002  -0.000205   0.002496  -0.066394
    26  H   -0.000010   0.000108   0.001985   0.010797  -0.013918   0.000053
    27  H   -0.000000  -0.000000   0.000000  -0.000004  -0.000188   0.000002
    28  H   -0.000000   0.000000   0.000000   0.000000   0.000000  -0.000000
    29  H   -0.000000  -0.000000   0.000000  -0.000000  -0.000000   0.000000
    30  H   -0.000000   0.000000   0.000000   0.000000  -0.000000   0.000000
    31  H    0.004780   0.000331   0.005577  -0.046241  -0.004458   0.001431
    32  H   -0.042827   0.004514   0.000823   0.003746  -0.000185  -0.000002
               7          8          9         10         11         12
     1  C   -0.000000   0.000000  -0.000000   0.000035  -0.000016  -0.000001
     2  C    0.000003  -0.000000   0.000004   0.000110  -0.000181  -0.000004
     3  C    0.000040   0.000006  -0.000141  -0.003091   0.000951   0.000056
     4  C    0.007837  -0.000110   0.009671  -0.057896  -0.017741   0.000686
     5  C   -0.009430  -0.062183  -0.013814   0.439122  -0.101582   0.008807
     6  C    0.415807  -0.015166  -0.061594   0.010835   0.013448  -0.000312
     7  C    4.824829   0.467360  -0.039304  -0.053812  -0.000825  -0.000024
     8  N    0.467360   6.881408   0.411891  -0.069486   0.011655  -0.000633
     9  C   -0.039304   0.411891   5.063990   0.363376  -0.023621  -0.062204
    10  C   -0.053812  -0.069486   0.363376   4.937910   0.386174   0.006037
    11  C   -0.000825   0.011655  -0.023621   0.386174   5.242090   0.445799
    12  C   -0.000024  -0.000633  -0.062204   0.006037   0.445799   5.188361
    13  C    0.000017   0.006537  -0.063331  -0.037649   0.007908   0.388589
    14  C    0.000004  -0.000072   0.012024   0.000112   0.009861  -0.098543
    15  C    0.000000  -0.000019  -0.001076  -0.000072  -0.000421   0.009713
    16  C    0.000006   0.000363   0.006727   0.000048  -0.000028   0.000343
    17  N    0.000355  -0.000849  -0.090844   0.006469  -0.000726   0.011875
    18  C    0.006682  -0.093468   0.269443  -0.065139  -0.061026   0.001342
    19  C    0.000040   0.000006  -0.000141  -0.003092   0.000950   0.000056
    20  C    0.000003  -0.000000   0.000004   0.000110  -0.000182  -0.000004
    21  H    0.000000   0.000000   0.000000   0.000000  -0.000000  -0.000000
    22  H   -0.000000   0.000000  -0.000000  -0.000002   0.000000   0.000000
    23  H   -0.000052  -0.000003  -0.000067   0.000684   0.000225  -0.000001
    24  H   -0.037348   0.004628   0.000492   0.004801  -0.000092   0.000002
    25  H    0.377917  -0.054004   0.003537   0.001108   0.000040  -0.000001
    26  H   -0.000011  -0.000100   0.004583  -0.029897   0.348025  -0.038894
    27  H   -0.000000   0.000006   0.000703   0.002665  -0.037873   0.354246
    28  H   -0.000000   0.000001  -0.000140   0.000020   0.000376  -0.009059
    29  H   -0.000000  -0.000000   0.000036  -0.000000   0.000003  -0.000146
    30  H   -0.000000   0.000003  -0.000073   0.000006  -0.000001   0.000026
    31  H   -0.000052  -0.000003  -0.000067   0.000685   0.000225  -0.000001
    32  H   -0.000000   0.000000  -0.000000  -0.000002   0.000000   0.000000
              13         14         15         16         17         18
     1  C    0.000000  -0.000000  -0.000000   0.000000  -0.000000   0.000000
     2  C    0.000000   0.000000  -0.000000  -0.000000   0.000000  -0.000000
     3  C   -0.000000   0.000000   0.000000  -0.000000   0.000000  -0.000002
     4  C    0.000024   0.000000  -0.000000  -0.000000   0.000000  -0.000102
     5  C    0.000275  -0.000010  -0.000000   0.000004  -0.000062   0.011045
     6  C   -0.000107  -0.000000  -0.000000   0.000000  -0.000018  -0.000868
     7  C    0.000017   0.000004   0.000000   0.000006   0.000355   0.006682
     8  N    0.006537  -0.000072  -0.000019   0.000363  -0.000849  -0.093468
     9  C   -0.063331   0.012024  -0.001076   0.006727  -0.090844   0.269443
    10  C   -0.037649   0.000112  -0.000072   0.000048   0.006469  -0.065139
    11  C    0.007908   0.009861  -0.000421  -0.000028  -0.000726  -0.061026
    12  C    0.388589  -0.098543   0.009713   0.000343   0.011875   0.001342
    13  C    4.819301   0.465824   0.006072  -0.042715  -0.067633   0.415434
    14  C    0.465824   5.093809   0.498542  -0.029952  -0.066473  -0.039551
    15  C    0.006072   0.498542   4.990248   0.459309  -0.013423  -0.041882
    16  C   -0.042715  -0.029952   0.459309   4.801917   0.469181  -0.052233
    17  N   -0.067633  -0.066473  -0.013423   0.469181   6.887234   0.409561
    18  C    0.415434  -0.039551  -0.041882  -0.052233   0.409561   4.990507
    19  C   -0.000000   0.000000   0.000000  -0.000000   0.000000  -0.000002
    20  C    0.000000   0.000000  -0.000000  -0.000000   0.000000  -0.000000
    21  H   -0.000000   0.000000   0.000000  -0.000000  -0.000000  -0.000000
    22  H    0.000000  -0.000000  -0.000000   0.000000  -0.000000   0.000000
    23  H   -0.000000  -0.000000   0.000000   0.000000  -0.000000   0.000002
    24  H   -0.000000  -0.000000   0.000000  -0.000000  -0.000000   0.000034
    25  H    0.000005  -0.000000   0.000000  -0.000000   0.000005  -0.000117
    26  H    0.002958  -0.000214   0.000003  -0.000000   0.000005   0.000602
    27  H   -0.039103  -0.008099   0.000199  -0.000005  -0.000123   0.003706
    28  H   -0.046225   0.363601  -0.048851   0.005250  -0.000256   0.004313
    29  H    0.003696  -0.037359   0.348858  -0.036432   0.004488   0.000855
    30  H    0.000690   0.003674  -0.069443   0.381217  -0.054700   0.003777
    31  H   -0.000000  -0.000000   0.000000   0.000000  -0.000000   0.000002
    32  H    0.000000  -0.000000  -0.000000   0.000000  -0.000000   0.000000
              19         20         21         22         23         24
     1  C   -0.037696   0.551514   0.359112  -0.042828   0.004780  -0.000007
     2  C   -0.046106  -0.026400  -0.043263   0.357366  -0.043291  -0.000086
     3  C   -0.040621  -0.046105   0.004911  -0.038844   0.357685   0.001420
     4  C    0.537230  -0.019887   0.000567   0.003747  -0.046241  -0.003811
     5  C   -0.046961   0.005685   0.000002  -0.000185  -0.004458  -0.040520
     6  C   -0.001201   0.000015   0.000000  -0.000002   0.001431   0.347836
     7  C    0.000040   0.000003   0.000000  -0.000000  -0.000052  -0.037348
     8  N    0.000006  -0.000000   0.000000   0.000000  -0.000003   0.004628
     9  C   -0.000141   0.000004   0.000000  -0.000000  -0.000067   0.000492
    10  C   -0.003092   0.000110   0.000000  -0.000002   0.000684   0.004801
    11  C    0.000950  -0.000182  -0.000000   0.000000   0.000225  -0.000092
    12  C    0.000056  -0.000004  -0.000000   0.000000  -0.000001   0.000002
    13  C   -0.000000   0.000000  -0.000000   0.000000  -0.000000  -0.000000
    14  C    0.000000   0.000000   0.000000  -0.000000  -0.000000  -0.000000
    15  C    0.000000  -0.000000   0.000000  -0.000000   0.000000   0.000000
    16  C   -0.000000  -0.000000  -0.000000   0.000000   0.000000  -0.000000
    17  N    0.000000   0.000000  -0.000000  -0.000000  -0.000000  -0.000000
    18  C   -0.000002  -0.000000  -0.000000   0.000000   0.000002   0.000034
    19  C    4.941915   0.515891   0.004911   0.000823   0.005577   0.001420
    20  C    0.515891   4.873929  -0.043264   0.004514   0.000331  -0.000086
    21  H    0.004911  -0.043264   0.596245  -0.005629  -0.000178  -0.000000
    22  H    0.000823   0.004514  -0.005629   0.591764  -0.005540   0.000001
    23  H    0.005577   0.000331  -0.000178  -0.005540   0.590090   0.000202
    24  H    0.001420  -0.000086  -0.000000   0.000001   0.000202   0.579197
    25  H   -0.000002  -0.000000  -0.000000   0.000000   0.000001  -0.001634
    26  H    0.001986   0.000108  -0.000000  -0.000001   0.000004  -0.000013
    27  H    0.000000  -0.000000  -0.000000  -0.000000  -0.000000  -0.000000
    28  H    0.000000   0.000000  -0.000000   0.000000   0.000000  -0.000000
    29  H    0.000000  -0.000000  -0.000000   0.000000   0.000000   0.000000
    30  H    0.000000   0.000000   0.000000  -0.000000  -0.000000  -0.000000
    31  H    0.357685  -0.043291  -0.000178   0.000017  -0.000164   0.000202
    32  H   -0.038843   0.357366  -0.005629  -0.000188   0.000017   0.000001
              25         26         27         28         29         30
     1  C    0.000000  -0.000010  -0.000000  -0.000000  -0.000000  -0.000000
     2  C   -0.000000   0.000108  -0.000000   0.000000  -0.000000   0.000000
     3  C   -0.000002   0.001985   0.000000   0.000000   0.000000   0.000000
     4  C   -0.000205   0.010797  -0.000004   0.000000  -0.000000   0.000000
     5  C    0.002496  -0.013918  -0.000188   0.000000  -0.000000  -0.000000
     6  C   -0.066394   0.000053   0.000002  -0.000000   0.000000   0.000000
     7  C    0.377917  -0.000011  -0.000000  -0.000000  -0.000000  -0.000000
     8  N   -0.054004  -0.000100   0.000006   0.000001  -0.000000   0.000003
     9  C    0.003537   0.004583   0.000703  -0.000140   0.000036  -0.000073
    10  C    0.001108  -0.029897   0.002665   0.000020  -0.000000   0.000006
    11  C    0.000040   0.348025  -0.037873   0.000376   0.000003  -0.000001
    12  C   -0.000001  -0.038894   0.354246  -0.009059  -0.000146   0.000026
    13  C    0.000005   0.002958  -0.039103  -0.046225   0.003696   0.000690
    14  C   -0.000000  -0.000214  -0.008099   0.363601  -0.037359   0.003674
    15  C    0.000000   0.000003   0.000199  -0.048851   0.348858  -0.069443
    16  C   -0.000000  -0.000000  -0.000005   0.005250  -0.036432   0.381217
    17  N    0.000005   0.000005  -0.000123  -0.000256   0.004488  -0.054700
    18  C   -0.000117   0.000602   0.003706   0.004313   0.000855   0.003777
    19  C   -0.000002   0.001986   0.000000   0.000000   0.000000   0.000000
    20  C   -0.000000   0.000108  -0.000000   0.000000  -0.000000   0.000000
    21  H   -0.000000  -0.000000  -0.000000  -0.000000  -0.000000   0.000000
    22  H    0.000000  -0.000001  -0.000000   0.000000   0.000000  -0.000000
    23  H    0.000001   0.000004  -0.000000   0.000000   0.000000  -0.000000
    24  H   -0.001634  -0.000013  -0.000000  -0.000000   0.000000  -0.000000
    25  H    0.593943  -0.000000   0.000000   0.000000  -0.000000  -0.000000
    26  H   -0.000000   0.568666  -0.004231  -0.000009  -0.000000   0.000000
    27  H    0.000000  -0.004231   0.587045   0.005970  -0.000017  -0.000000
    28  H    0.000000  -0.000009   0.005970   0.589885  -0.005697  -0.000199
    29  H   -0.000000  -0.000000  -0.000017  -0.005697   0.585262  -0.001859
    30  H   -0.000000   0.000000  -0.000000  -0.000199  -0.001859   0.592978
    31  H    0.000001   0.000004  -0.000000   0.000000   0.000000  -0.000000
    32  H    0.000000  -0.000001  -0.000000   0.000000   0.000000  -0.000000
              31         32
     1  C    0.004780  -0.042827
     2  C    0.000331   0.004514
     3  C    0.005577   0.000823
     4  C   -0.046241   0.003746
     5  C   -0.004458  -0.000185
     6  C    0.001431  -0.000002
     7  C   -0.000052  -0.000000
     8  N   -0.000003   0.000000
     9  C   -0.000067  -0.000000
    10  C    0.000685  -0.000002
    11  C    0.000225   0.000000
    12  C   -0.000001   0.000000
    13  C   -0.000000   0.000000
    14  C   -0.000000  -0.000000
    15  C    0.000000  -0.000000
    16  C    0.000000   0.000000
    17  N   -0.000000  -0.000000
    18  C    0.000002   0.000000
    19  C    0.357685  -0.038843
    20  C   -0.043291   0.357366
    21  H   -0.000178  -0.005629
    22  H    0.000017  -0.000188
    23  H   -0.000164   0.000017
    24  H    0.000202   0.000001
    25  H    0.000001   0.000000
    26  H    0.000004  -0.000001
    27  H   -0.000000  -0.000000
    28  H    0.000000   0.000000
    29  H    0.000000   0.000000
    30  H   -0.000000  -0.000000
    31  H    0.590090  -0.005540
    32  H   -0.005540   0.591764
 Mulliken charges:
               1
     1  C   -0.124898
     2  C   -0.130254
     3  C   -0.153823
     4  C    0.031491
     5  C    0.009236
     6  C   -0.167338
     7  C    0.039959
     8  N   -0.487766
     9  C    0.209936
    10  C    0.159828
    11  C   -0.223411
    12  C   -0.206113
    13  C    0.179434
    14  C   -0.167179
    15  C   -0.137757
    16  C    0.037000
    17  N   -0.494066
    18  C    0.237085
    19  C   -0.153824
    20  C   -0.130254
    21  H    0.132395
    22  H    0.134986
    23  H    0.138965
    24  H    0.143360
    25  H    0.143304
    26  H    0.147413
    27  H    0.135100
    28  H    0.141019
    29  H    0.138312
    30  H    0.143906
    31  H    0.138965
    32  H    0.134987
 Sum of Mulliken charges =  -0.00000
 Mulliken charges with hydrogens summed into heavy atoms:
               1
     1  C    0.007497
     2  C    0.004732
     3  C   -0.014858
     4  C    0.031491
     5  C    0.009236
     6  C   -0.023978
     7  C    0.183263
     8  N   -0.487766
     9  C    0.209936
    10  C    0.159828
    11  C   -0.075998
    12  C   -0.071012
    13  C    0.179434
    14  C   -0.026160
    15  C    0.000555
    16  C    0.180905
    17  N   -0.494066
    18  C    0.237085
    19  C   -0.014858
    20  C    0.004733
 Electronic spatial extent (au):  <R**2>=           6052.9078
 Charge=             -0.0000 electrons
 Dipole moment (field-independent basis, Debye):
    X=             -2.0799    Y=             -3.0768    Z=             -0.0001  Tot=              3.7138
 Quadrupole moment (field-independent basis, Debye-Ang):
   XX=            -98.2922   YY=           -109.2751   ZZ=           -111.1395
   XY=             -9.9971   XZ=             -0.0002   YZ=             -0.0004
 Traceless Quadrupole moment (field-independent basis, Debye-Ang):
   XX=              7.9434   YY=             -3.0395   ZZ=             -4.9039
   XY=             -9.9971   XZ=             -0.0002   YZ=             -0.0004
 Octapole moment (field-independent basis, Debye-Ang**2):
  XXX=             32.9333  YYY=             -2.1985  ZZZ=              0.0004  XYY=             -5.4106
  XXY=            -58.0988  XXZ=             -0.0027  XZZ=            -20.8092  YZZ=              0.3016
  YYZ=             -0.0011  XYZ=              0.0019
 Hexadecapole moment (field-independent basis, Debye-Ang**3):
 XXXX=          -5799.4868 YYYY=          -1313.1334 ZZZZ=           -346.2457 XXXY=             24.3749
 XXXZ=              0.0053 YYYX=           -102.9896 YYYZ=              0.0001 ZZZX=              0.0015
 ZZZY=             -0.0027 XXYY=          -1313.8995 XXZZ=          -1126.1698 YYZZ=           -315.6236
 XXYZ=             -0.0033 YYXZ=             -0.0055 ZZXY=             24.8681
 N-N= 1.351789054059D+03 E-N=-4.564193041538D+03  KE= 7.952392185535D+02
 No NMR shielding tensors so no spin-rotation constants.
 Leave Link  601 at Fri Jun  5 16:57:24 2026, MaxMem=  1258291200 cpu:               0.5 elap:               0.1
 (Enter /apl/gaussian/16c02/g16/l701.exe)
 ... and contract with generalized density number  0.
 Compute integral first derivatives.
 Leave Link  701 at Fri Jun  5 16:57:24 2026, MaxMem=  1258291200 cpu:               0.5 elap:               0.1
 (Enter /apl/gaussian/16c02/g16/l702.exe)
 L702 exits ... SP integral derivatives will be done elsewhere.
 Leave Link  702 at Fri Jun  5 16:57:24 2026, MaxMem=  1258291200 cpu:               0.0 elap:               0.1
 (Enter /apl/gaussian/16c02/g16/l703.exe)
 Integral derivatives from FoFJK, PRISM(SPDF).
 Compute integral first derivatives, UseDBF=F ICtDFT=           0.
 Calling FoFJK, ICntrl=      2127 FMM=F ISym2X=0 I1Cent= 0 IOpClX= 0 NMat=1 NMatS=1 NMatT=0.
 FoFJK:  IHMeth= 1 ICntrl=    2127 DoSepK=F KAlg= 0 I1Cent=           0 FoldK=F
 IRaf=         0 NMat=       1 IRICut=       1 DoRegI=T DoRafI=F ISym2E= 0 IDoP0=0 IntGTp=1.
 FoFCou: FMM=F IPFlag=           0 FMFlag=      100000 FMFlg1=         800
         NFxFlg=           0 DoJE=F BraDBF=F KetDBF=F FulRan=T
         wScrn=  0.000000 ICntrl=      2127 IOpCl=  0 I1Cent=           0 NGrid=           0
         NMat0=    1 NMatS0=      1 NMatT0=    0 NMatD0=    1 NMtDS0=    0 NMtDT0=    0
 Symmetry not used in FoFCou.
 Leave Link  703 at Fri Jun  5 16:57:34 2026, MaxMem=  1258291200 cpu:              74.1 elap:               9.4
 (Enter /apl/gaussian/16c02/g16/l716.exe)
 Dipole        =-8.18304709D-01-1.21049132D+00-5.60912787D-05
 ***** Axes restored to original set *****
 -------------------------------------------------------------------
 Center     Atomic                   Forces (Hartrees/Bohr)
 Number     Number              X              Y              Z
 -------------------------------------------------------------------
      1        6           0.003117567    0.000935258   -0.001487880
      2        6          -0.001124605   -0.000847738    0.000815525
      3        6           0.001323659   -0.000804979   -0.002197372
      4        6           0.009950010    0.006514442   -0.009372710
      5        6          -0.002264320   -0.009742153    0.012991032
      6        6           0.013306965    0.010489851   -0.014877590
      7        6          -0.041600234    0.003623858   -0.001361706
      8        7           0.004231573   -0.007344767    0.009307248
      9        6           0.032797665   -0.021512233    0.025596852
     10        6           0.008902531   -0.003580298    0.003979702
     11        6          -0.015270927    0.020808688   -0.026106890
     12        6           0.046740932   -0.001241415   -0.002189568
     13        6          -0.014436775    0.004337955   -0.004522789
     14        6          -0.018340765    0.000467153    0.000885281
     15        6           0.004263933    0.014278640   -0.019119326
     16        6           0.028103327   -0.020803680    0.025050415
     17        7          -0.011769255   -0.000122295    0.001122774
     18        6          -0.046563136    0.006318633   -0.004498449
     19        6           0.001510292    0.002219638    0.000102360
[...]
 ,0.00033505,-0.00007462,0.00000514,-0.00093187,-0.00002363,0.00009139,
 -0.00498722,0.00105750,-0.00020873,0.00226951,0.01874635,-0.02454817,-
 0.06084415,0.01182983,-0.01348350,0.00467097,-0.01655796,0.02161339,0.
 00185540,-0.00105269,0.00104550,0.00008332,0.00030706,-0.00042948,0.00
 063844,-0.00019840,0.00019694,-0.00024156,-0.00120799,0.00162062,-0.00
 469932,0.00008380,0.00059054,-0.00003175,0.00000071,0.00004706,-0.0000
 0130,-0.00001127,0.00000593,-0.00001016,0.00000061,0.00000002,-0.00001
 468,0.00000558,0.00000572,0.00000579,0.00000217,-0.00001452,-0.0000044
 0,0.00009738,-0.00013110,0.00001187,0.00001202,-0.00000205,0.00105317,
 -0.00041405,0.00001168,0.06096933,0.00001420,0.00003553,0.00001298,-0.
 00004905,-0.00000942,-0.00000632,0.00006889,0.00000687,0.00002192,-0.0
 0004468,0.00014448,0.00016891,-0.00027846,-0.00001719,0.00052152,0.000
 18183,-0.00065109,-0.00041322,0.00004297,0.00011238,-0.00001030,-0.000
 03529,-0.00055882,-0.00031632,-0.00016637,0.00007917,-0.00034568,0.002
 15354,0.00636878,0.00388719,-0.00051727,-0.00234859,0.00762046,0.01248
 563,-0.14605738,0.14421382,0.00145416,-0.00299297,0.00751324,0.0010464
 7,-0.00115264,-0.00156879,-0.00026576,-0.00017470,-0.00005478,0.000103
 63,0.00005635,-0.00026973,0.00012038,-0.00037844,0.00069649,-0.0014747
 2,0.00303748,0.00121440,-0.00003053,-0.00000336,-0.00005189,0.00004313
 ,-0.00000674,-0.00001772,0.00000588,0.,-0.00000060,0.00001053,-0.00000
 554,-0.00000651,-0.00000176,-0.00001494,0.00000884,0.00000117,-0.00006
 054,0.00002384,0.00001276,0.00010267,0.00010082,-0.00016328,-0.0030842
 2,-0.00310950,-0.01406172,0.14708505,-0.00001287,0.00001489,0.00002778
 ,-0.00003230,-0.00001313,0.00000161,0.00001152,-0.00005345,0.00000194,
 0.00006756,0.00015998,0.00005438,0.00033894,0.00043825,-0.00024156,-0.
 00028494,-0.00040823,-0.00039421,-0.00003461,-0.00000312,0.00011413,-0
 .00004657,-0.00031307,-0.00038631,0.00027904,-0.00035737,0.00025278,-0
 .00164943,0.00397676,0.00436738,0.00077362,0.00604528,-0.00459326,-0.0
 1434543,0.14426748,-0.22403548,-0.00206347,0.00898609,-0.00883022,-0.0
 0171379,-0.00139714,-0.00030433,0.00032347,-0.00010163,-0.00012576,-0.
 00020008,-0.00024503,0.00019604,-0.00012549,0.00080512,-0.00088914,0.0
 0263919,0.00108694,0.00222498,-0.00005843,0.00003031,0.00001541,0.0000
 3789,-0.00001012,-0.00000633,-0.00000690,-0.00000017,0.00000070,-0.000
 00936,0.00000123,0.00000373,0.00000608,-0.00000602,-0.00001162,-0.0000
 0464,0.00001598,-0.00006295,-0.00000301,0.00010088,0.00004780,-0.00031
 791,-0.00308899,-0.00137347,0.01551262,-0.15981516,0.23343827,-0.00000
 281,-0.00000135,0.00000168,-0.00000121,0.00000025,0.00000557,-0.000001
 48,-0.00000411,0.00000863,-0.00000012,0.00001071,-0.00001375,0.0000104
 0,-0.00008526,0.00011528,0.00000719,0.00002143,-0.00003177,-0.00003371
 ,0.00005534,-0.00006614,-0.00049637,0.00020809,-0.00022093,0.00076638,
 0.00073875,-0.00105167,0.00012288,0.00011953,-0.00016601,0.00011410,-0
 .00025133,0.00031532,0.00173906,0.00082010,-0.00150058,0.00211284,0.01
 775860,-0.02316837,-0.06269709,0.01373592,-0.01613139,0.00755912,-0.01
 691694,0.02201492,-0.00480914,-0.00076671,0.00219144,-0.00037464,-0.00
 020279,-0.00002843,-0.00547239,0.00106484,-0.00039237,-0.00000129,-0.0
 0000681,0.00000699,-0.00000184,-0.00000548,0.00000156,-0.00000012,0.00
 000094,-0.00000124,-0.00000147,0.00000026,-0.00000073,-0.00000117,0.00
 000351,-0.00000361,-0.00000393,-0.00000394,0.00000550,-0.00003984,0.00
 001428,-0.00001886,-0.00002360,0.00000238,0.00001275,-0.00029734,-0.00
 057139,0.00079335,0.06058952,0.00000416,-0.00000056,-0.00000489,0.0000
 0088,0.00000206,-0.00000225,0.00001048,0.00001925,0.00000009,-0.000018
 53,-0.00001057,0.00002041,-0.00001152,0.00004646,0.00000512,0.00003580
 ,-0.00003121,-0.00001038,-0.00002883,0.00003202,0.00002205,0.00023957,
 -0.00001945,0.00019897,-0.00058666,-0.00031061,0.00016802,0.00001210,0
 .00004836,-0.00004578,0.00019619,0.00000429,-0.00011369,-0.00128339,-0
 .00185947,-0.00195756,-0.00013445,-0.00206319,0.00831425,0.01363386,-0
 .14851087,0.14261930,0.00222811,-0.00151407,0.00817340,-0.00192096,0.0
 0650966,0.00430564,-0.00005034,-0.00241648,-0.00205415,0.00221014,0.00
 486319,0.00242660,0.00001502,-0.00000130,-0.00000891,-0.00000363,-0.00
 000092,0.00000097,0.00000360,0.00000036,-0.00000099,0.00000611,-0.0000
 0228,-0.00000328,-0.00000249,-0.00000313,0.00000634,0.00000956,-0.0000
 0067,0.00000008,0.00001853,-0.00003804,-0.00000536,0.00003936,0.000101
 42,0.00008774,0.00056481,0.00032994,-0.00019129,-0.01498960,0.14789279
 ,-0.00000557,-0.00000444,0.00000227,0.00000360,-0.00000016,-0.00000126
 ,-0.00001896,-0.00001299,0.00000140,0.00002468,0.00001802,-0.00002190,
 0.00001835,0.00001115,0.00003349,-0.00005066,-0.00000920,-0.00002064,0
 .00004450,0.00001516,0.00002342,-0.00026232,0.00020155,-0.00009666,0.0
 0069057,0.00005963,-0.00035414,-0.00002479,-0.00005456,0.00008803,-0.0
 0027295,-0.00007709,0.00005365,0.00126443,-0.00212957,-0.00073264,0.00
 035179,0.00685112,-0.00478090,-0.01599723,0.14261095,-0.22531643,-0.00
 315096,0.00973892,-0.00770152,0.00370870,0.00421124,0.00382681,-0.0002
 2883,-0.00204168,-0.00127984,-0.00189786,0.00252026,0.00368906,-0.0000
 1329,0.00000715,0.00002175,0.00000027,-0.00000091,0.00000235,-0.000004
 74,-0.00000077,0.00000123,-0.00000426,0.00000132,0.00000315,0.00000440
 ,-0.00000392,-0.00000575,-0.00001225,0.00000118,-0.00000057,-0.0000244
 5,-0.00000502,-0.00003237,-0.00003586,0.00009076,0.00005425,-0.0007001
 7,-0.00009838,0.00040612,0.01684657,-0.15946066,0.23388112,-0.00000434
 ,-0.00000192,0.00000298,0.00000333,-0.00000131,-0.00000441,-0.00002173
 ,-0.00002015,-0.00000819,0.00002757,0.00001755,-0.00002542,0.00004148,
 0.00001885,-0.00002034,-0.00003070,-0.00000432,0.00000668,0.00004600,-
 0.00001697,0.00001409,-0.00012029,0.00008982,-0.00009576,0.00015796,-0
 .00006350,-0.00006232,0.00000795,-0.00007566,0.00011297,-0.00037739,-0
 .00022069,0.00027153,-0.00049131,0.00079052,-0.00095800,-0.00136689,-0
 .00216134,0.00370374,-0.01858138,0.00847132,-0.00942867,-0.29742546,0.
 07198587,-0.07318741,0.00046391,-0.00105119,0.00136321,0.00147385,0.00
 068047,-0.00047615,0.00041869,-0.00044835,0.00055034,-0.00002011,0.000
 01506,0.00001898,0.00000385,0.00000424,-0.00000038,-0.00000615,-0.0000
 0186,0.00000296,-0.00000582,0.00000208,0.00000560,0.00000668,-0.000005
 21,-0.00000459,-0.00001345,0.00000691,-0.00000651,-0.00001138,0.000013
 13,-0.00001545,-0.00010550,0.00003937,-0.00004638,-0.00000229,-0.00003
 090,0.00005190,0.00103067,-0.00034908,0.00000044,0.31451478,0.00000164
 ,0.00000100,0.00000018,-0.00000146,-0.00000215,-0.00000036,0.00001119,
 0.00000960,-0.00000216,-0.00000800,-0.00000596,0.00000701,-0.00000266,
 0.00008130,0.00001913,0.00000375,-0.00002955,0.00001430,0.00001067,-0.
 00000024,-0.00007209,0.00004645,0.00010057,0.00006454,0.00015565,-0.00
 102433,-0.00080233,0.00005928,0.00002332,0.00019224,-0.00020674,-0.000
 39793,-0.00025441,-0.00027948,0.00060057,-0.00010828,-0.00147432,0.005
 17413,0.00539036,-0.01070935,0.00612553,-0.00416476,0.07224163,-0.0660
 4288,0.03454736,0.01898434,-0.00184561,0.00118510,0.00086817,0.0016330
 5,0.00644447,-0.00144108,-0.00046072,0.00064672,0.00000177,0.00000114,
 -0.00000208,0.00000127,-0.00000033,-0.00000195,0.00000124,0.00000052,-
 0.00000069,0.00000223,-0.00000032,-0.00000212,-0.00000134,-0.00000062,
 0.00000185,0.00001072,0.00001206,0.00000692,0.00000499,0.00000069,0.00
 001291,-0.00004746,-0.00000757,-0.00003837,0.00001178,0.00009560,0.000
 05187,0.00015887,-0.00253037,-0.00270121,-0.07788507,0.05970858,-0.000
 00170,0.00000047,0.00000075,-0.00000134,-0.00000124,0.00000075,-0.0000
 0316,-0.00000261,0.00000310,0.00000817,0.00000492,-0.00000826,0.000007
 92,0.00001737,0.00007221,-0.00000393,0.00001496,-0.00003778,-0.0000222
 4,-0.00006983,0.00003919,-0.00003874,0.00006099,0.00007556,-0.00035039
 ,-0.00078441,-0.00056528,-0.00006441,0.00020327,-0.00008868,0.00025320
 ,-0.00025327,-0.00029212,0.00044850,-0.00019577,0.00072148,0.00280065,
 0.00544653,0.00179476,0.01578404,-0.00573319,0.00853648,-0.07352361,0.
 03456828,-0.07469427,-0.02497319,0.00282341,-0.00143232,-0.00072286,0.
 00645982,-0.00184251,0.00185527,0.00056555,-0.00095349,-0.00000977,-0.
 00000015,0.00000992,0.00000065,-0.00000132,-0.00000158,-0.00000112,-0.
 00000043,0.00000074,-0.00000082,0.00000009,0.00000099,0.00000147,-0.00
 000138,-0.00000171,-0.00001152,0.00000723,0.00000943,-0.00000474,0.000
 01224,-0.00000489,0.00006777,-0.00004547,0.00001452,-0.00000420,0.0000
 5537,0.00006337,-0.00066725,-0.00265967,-0.00102478,0.07872103,-0.0389
 9543,0.07001943,-0.00000839,-0.00000186,0.00000341,0.00000307,-0.00000
 155,-0.00000139,-0.00003364,-0.00002993,-0.00000383,0.00002157,0.00003
 875,-0.00005670,0.00001309,-0.00009199,0.00011496,-0.00002901,0.000057
 10,-0.00006165,-0.00006456,-0.00007652,0.00010842,-0.00007288,0.000181
 94,-0.00020496,-0.00017159,-0.00068411,0.00095048,-0.00041494,0.000211
 90,-0.00028852,0.00003138,0.00004366,-0.00004898,0.00019339,-0.0001939
 6,0.00011061,-0.00046262,0.00018638,-0.00024318,0.00089203,0.00090314,
 -0.00076948,0.00656238,0.00226558,-0.00299176,-0.21489283,-0.07437961,
 0.11198893,-0.03698116,-0.00422972,0.00814887,-0.00199126,0.00146656,-
 0.00081045,-0.00003185,0.00001412,0.00003071,0.00000356,0.00000116,0.0
 0000064,-0.00000717,-0.00000239,0.00000373,-0.00000773,0.00000162,0.00
 000817,0.00000815,-0.00000449,-0.00000709,-0.00002546,0.00000693,-0.00
 000612,-0.00003651,0.00002625,-0.00004027,-0.00001410,-0.00000582,0.00
 002134,-0.00006018,-0.00005433,0.00008397,0.00021035,0.00015248,-0.000
 24975,0.00038654,-0.00051758,0.00045709,0.24697992,-0.00000034,0.00000
 207,0.00000183,-0.00000256,-0.00000279,-0.00000370,0.00000436,0.000004
 33,-0.00000468,0.00001130,-0.00003304,-0.00002182,0.00006114,-0.000033
 36,-0.00003975,0.00000553,0.00011118,0.00003079,-0.00004186,0.00000838
 ,0.00003360,-0.00004356,0.00019038,0.00020724,0.00013453,0.00054319,-0
 .00012713,0.00003582,-0.00035246,-0.00024542,0.00003497,0.00004467,0.0
 0011496,-0.00016666,-0.00092632,-0.00083492,0.00066790,-0.00030896,-0.
 00022737,0.00171101,0.00160440,0.00563787,-0.01588616,-0.00049709,0.01
 035851,-0.07442483,-0.08207611,0.06005496,0.01067410,0.00213940,-0.010
 67844,0.00317836,0.00748176,0.00524862,-0.00001095,0.00000137,0.000009
 99,0.00000271,-0.00000109,-0.00000285,-0.00000106,-0.00000051,0.000000
 84,0.00000059,-0.00000016,0.00000117,0.00000120,-0.00000196,-0.0000012
 4,-0.00000223,0.00000777,0.00000462,-0.00000139,-0.00006670,-0.0000530
 0,-0.00000436,0.00009977,0.00007073,0.00005490,0.00007228,0.00002323,-
 0.00091142,-0.00053376,0.00025978,0.00020263,-0.00121804,-0.00149620,0
 .07471666,0.07374193,0.00000141,0.00000196,0.00000075,-0.00000262,-0.0
 0000204,0.00000100,0.00001362,0.00001073,-0.00000051,-0.00002062,-0.00
 002407,-0.00001562,-0.00008632,-0.00002723,-0.00001695,0.00000614,0.00
 002657,0.00009952,0.00006287,0.00003644,-0.00002170,0.00009146,0.00018
 879,0.00008968,-0.00012559,-0.00006020,0.00054424,-0.00005706,-0.00025
 982,-0.00019074,-0.00003756,0.00011425,-0.00001282,0.00007473,-0.00083
 269,-0.00048341,-0.00087614,-0.00018800,-0.00012162,-0.00183142,0.0057
 0393,-0.00134811,0.02086842,0.00887420,-0.00697651,0.11204838,0.060051
 27,-0.12911784,-0.01144196,-0.00945972,0.00805005,-0.00306063,0.005388
 60,0.00483943,0.00000116,-0.00000466,0.00000066,0.00000116,-0.00000447
 ,-0.00000118,0.00000198,0.00000095,-0.00000134,0.00000261,-0.00000078,
 -0.00000224,-0.00000279,0.00000212,0.00000143,0.00000592,0.00000388,0.
 00000557,-0.00000395,-0.00005526,-0.00003414,0.00001942,0.00007085,0.0
 0005859,-0.00005961,0.00003217,0.00005596,0.00114872,0.00017278,-0.000
 71388,-0.00048960,-0.00143730,-0.00041432,-0.11625014,-0.06832293,0.12
 572848,-0.00251258,-0.00442837,0.00356272,-0.00064141,-0.00068827,-0.0
 0024447,0.00008814,-0.00431699,0.00096104,0.00887315,-0.00920183,-0.01
 166139,-0.00016889,0.00079051,-0.00204444,0.00045141,0.00005974,0.0000
 3918,-0.00003009,-0.00002572,-0.00001443,0.00001350,0.00005541,-0.0000
 8678,-0.00016780,0.00004701,0.00005718,-0.00007887,-0.00003720,0.00005
 956,-0.00002189,0.00002635,-0.00002054,-0.00002024,0.00001875,0.000005
 10,-0.00000398,-0.00002358,0.00002308,-0.00001122,0.00001553,-0.000013
 99,0.00001103,0.00000738,-0.00001202,-0.00000692,-0.00000859,0.0000121
 4,0.00002745,0.00000069,-0.00000110,-0.00004526,-0.00000741,-0.0000054
 3,-0.09687900,0.05425864,0.08832917,-0.00634705,0.01726792,0.02038822,
 -0.00039213,0.00082210,0.00114221,-0.00019691,0.00047665,-0.00041574,0
 .00063243,-0.00063001,-0.00056182,-0.00001207,0.00005999,-0.00002006,0
 .00002651,0.00002903,-0.00002007,0.00007200,-0.00004438,-0.00004133,0.
 00000609,-0.00000715,0.00000262,-0.00000131,-0.00000405,0.00000394,0.0
 0000730,-0.00000181,0.00000135,0.00000891,0.00000184,-0.00000272,0.097
 47217,-0.00353648,0.00227004,-0.00143809,-0.00070053,-0.00029783,0.000
 43288,-0.00505259,-0.00173366,-0.00266102,0.01087595,-0.01076160,-0.01
 917528,0.00268223,-0.00022757,0.00073611,-0.00042560,0.00000717,0.0004
 9407,-0.00007497,-0.00014285,0.00025963,0.00011841,-0.00003304,0.00003
 251,-0.00003468,-0.00001814,-0.00010539,-0.00021757,0.00021531,-0.0001
 8155,0.00007134,0.00008542,-0.00008141,-0.00003270,-0.00002647,0.00004
 556,0.00002431,-0.00001860,0.00001177,-0.00002423,0.00001046,-0.000010
 14,0.00002141,0.00000638,-0.00001007,-0.00000795,-0.00001453,0.0000145
 9,0.00003285,-0.00000103,0.00001618,-0.00005134,0.00002568,-0.00001124
 ,0.05379211,-0.13853284,-0.12225462,-0.00406042,0.00828339,0.00772797,
 -0.00033819,0.00037681,0.00033442,0.00047121,-0.00032130,0.00044572,0.
 00055113,-0.00045147,-0.00122145,0.00002369,-0.00018326,-0.00004947,-0
 .00003951,-0.00001663,0.00000675,-0.00003496,-0.00002350,0.00002331,0.
 00001249,-0.00001167,0.00000677,0.00000265,-0.00000484,0.00000639,0.00
 000524,-0.00000184,0.00000164,0.00000730,0.00000064,-0.00000245,-0.055
 61941,0.14209497,0.00425030,-0.00076234,0.00348954,-0.00024695,0.00041
 299,0.00030991,0.00034584,-0.00314203,0.00328964,0.00485203,-0.0044469
 6,-0.00410534,-0.00080535,0.00220722,-0.00144850,0.00009746,-0.0000451
 0,0.00019037,0.00009383,-0.00007492,-0.00015411,-0.00007164,0.00009120
 ,-0.00003552,-0.00016102,0.00002493,-0.00004919,-0.00048056,-0.0002729
 5,0.00039333,-0.00009438,0.00006145,0.00015047,-0.00003171,0.00007195,
 -0.00003086,-0.00000962,-0.00001402,-0.00000387,-0.00000207,0.00001339
 ,-0.00000550,-0.00000160,0.00000898,-0.00001000,0.00000372,-0.00000490
 ,0.00000691,-0.00001807,0.00001205,-0.00000937,0.00000201,-0.00004080,
 0.00003048,0.08789237,-0.12269226,-0.19959671,0.00309744,-0.00787233,-
 0.00622339,0.00020776,-0.00050822,-0.00030115,-0.00041729,0.00043235,-
 0.00063297,0.00038864,-0.00038124,-0.00000265,0.00001219,0.00008278,-0
 .00000437,0.00000908,0.00001955,0.00000023,0.00012243,-0.00010733,-0.0
 0015555,-0.00000777,-0.00000615,-0.00001519,-0.00000476,-0.00000283,-0
 .00000389,0.00000322,-0.00000132,-0.00000112,0.00000189,0.00000089,-0.
 00000194,-0.09756439,0.13504187,0.20620332,0.00979573,0.01174017,0.004
 19741,0.00104120,-0.00017147,0.00420458,-0.00059395,0.00058971,0.00061
 605,-0.00225935,-0.00210621,0.00528406,0.00008811,-0.00096707,-0.00074
 587,-0.00031797,-0.00000494,0.00018432,0.00013908,0.00012126,0.0000216
 8,-0.00012368,-0.00002927,-0.00001605,0.00001440,0.00005649,0.00003595
 ,-0.00007846,-0.00017307,0.00017144,-0.00005438,0.00000067,0.00000191,
 0.00001229,0.00002333,-0.00002062,-0.00001044,0.00001293,-0.00002935,0
 .00001178,-0.00000905,0.00001578,-0.00001428,-0.00000335,0.00000771,0.
 00000437,0.00000427,-0.00000743,-0.00004497,0.00001606,-0.00000118,0.0
 0003751,-0.00002331,0.00002503,-0.00895897,-0.02339998,-0.01071980,-0.
 11693827,-0.11506233,-0.03370736,-0.00028459,0.00095551,-0.00184717,0.
 00046012,0.00058760,0.00036522,-0.00021966,0.00028843,-0.00054760,0.00
 001564,-0.00003797,-0.00002177,-0.00002267,-0.00003246,0.00001419,0.00
 001765,-0.00002147,0.00000048,-0.00001563,0.00000749,-0.00001254,-0.00
 000167,0.00000277,-0.00000733,-0.00000639,0.00000072,-0.00000214,-0.00
 000847,-0.00000217,0.00000073,-0.00015248,0.00155884,-0.00146301,0.118
 46841,-0.00968875,-0.01059747,-0.00356894,0.00073826,0.00169258,-0.004
 82233,0.00055412,0.00032977,0.00019088,-0.00272403,0.00331534,-0.00126
 510,0.00017532,-0.00008431,-0.00035054,-0.00010583,-0.00001981,-0.0000
 6938,-0.00001312,0.00002337,-0.00001107,-0.00001824,-0.00005848,0.0000
 6288,0.00003691,0.00007804,-0.00004947,-0.00016092,-0.00004957,0.00013
 665,0.00001909,-0.00001672,0.00001087,-0.00001789,0.00000267,0.0000011
 7,0.00000236,0.00002075,-0.00002449,0.00000445,-0.00000753,0.00001191,
 -0.00000929,-0.00000322,0.00000506,0.00000788,0.00000560,-0.00000676,-
 0.00003957,0.00000251,0.00000060,0.00003415,-0.00002853,0.00001989,-0.
 00211235,-0.00355570,-0.00320405,-0.11498573,-0.24094217,-0.08181347,0
 .00145278,-0.00049630,0.00167172,-0.00060505,-0.00056370,-0.00026021,0
 .00028629,-0.00042893,0.00049037,0.00001039,-0.00001290,-0.00002445,-0
 .00001644,-0.00000518,0.00002271,0.00000877,-0.00002112,0.00001464,-0.
 00000614,0.00000169,-0.00000713,0.00000067,0.00000200,-0.00000402,-0.0
 0000555,0.00000079,-0.00000179,-0.00000768,-0.00000117,0.00000212,0.00
 110725,-0.00055361,0.00189411,0.12607789,0.25197131,-0.01310516,-0.019
 13650,-0.00335194,0.00491437,-0.00419034,0.00004317,0.00060456,0.00019
 499,-0.00071138,0.00491671,-0.00160692,0.00243622,0.00011462,0.0004360
 6,0.00048699,-0.00000681,-0.00000290,0.00004657,0.00005317,-0.00003257
 ,-0.00002102,-0.00002366,0.00006569,-0.00005414,-0.00002877,-0.0000935
 6,0.00002240,0.00017225,-0.00005559,-0.00010134,-0.00003567,0.00004612
 ,-0.00002035,0.00003006,-0.00000774,0.00001173,-0.00001727,-0.00000531
 ,0.00000452,0.00000836,-0.00000267,0.00000292,-0.00000207,-0.00000275,
 0.00000464,-0.00000483,0.00000016,-0.00000343,0.00001184,0.00000468,-0
 .00000268,-0.00001223,0.00001990,0.00000010,0.00656038,0.01230450,0.00
 748280,-0.03369651,-0.08183860,-0.07734378,-0.00144742,0.00203177,-0.0
 0118307,-0.00059627,-0.00113675,-0.00016764,-0.00055348,0.00047727,-0.
 00050258,-0.00001017,0.00003376,0.00001081,0.00000487,0.00000075,-0.00
 000897,0.00000595,-0.00001385,0.00000726,-0.00000319,-0.00000091,-0.00
 000256,-0.00000043,-0.00000006,-0.00000094,-0.00000013,-0.00000010,0.0
 0000045,0.00000106,-0.00000019,-0.00000048,-0.00185678,0.00156404,-0.0
 0127300,0.03400266,0.09094762,0.07418869\\-0.00000375,0.00000260,-0.00
 000302,0.00000477,0.00001517,0.00000748,-0.00000742,-0.00001747,-0.000
 00186,0.00004414,0.00002218,-0.00003285,-0.00011422,-0.00000133,0.0000
 1112,-0.00001307,-0.00004590,0.00006242,0.00003282,-0.00001776,0.00002
 065,-0.00000588,0.00011476,-0.00015039,0.00009294,-0.00014148,0.000178
 38,0.00013655,0.00001673,-0.00003409,-0.00010703,0.00001097,-0.0000056
 0,0.00006129,-0.00005459,0.00006673,-0.00006042,0.00010615,-0.00013461
 ,0.00005870,-0.00005174,0.00006319,-0.00002086,-0.00002880,0.00003960,
 -0.00003484,-0.00000672,0.00001164,0.00014409,0.00005610,-0.00008549,-
 0.00021824,-0.00001582,0.00003865,-0.00000549,0.00000634,0.00001747,0.
 00000320,-0.00001160,-0.00001291,-0.00000116,-0.00000275,0.00000371,0.
 00000120,-0.00000262,-0.00000315,-0.00000255,0.00000304,0.00000171,0.0
 0000144,0.00000591,-0.00000792,0.00002328,-0.00000388,0.00000320,0.000
 02437,-0.00000438,0.00000382,-0.00002045,0.00001147,-0.00001338,-0.000
 00409,0.00001189,-0.00001530,0.00000620,0.00000871,-0.00001197,-0.0000
 1420,0.00001344,-0.00001648,-0.00000291,-0.00000224,-0.00000234,0.0000
 0158,0.00000364,0.00000158\\\@
 The archive entry for this job was punched.


 ONE THORN OF EXPERIENCE IS WORTH A WHOLE WILDERNESS OF
 WARNING....  LOWELL - AMONG MY BOOKS
 Job cpu time:       0 days  0 hours 37 minutes 43.9 seconds.
 Elapsed time:       0 days  0 hours  4 minutes 47.8 seconds.
 File lengths (MBytes):  RWF=    385 Int=      0 D2E=      0 Chk=     10 Scr=      1
 Normal termination of Gaussian 16 at Fri Jun  5 17:04:32 2026.
