 Entering Gaussian System, Link 0=/apl/gaussian/16c02/g16/._.g16
 Initial command:
 /apl/gaussian/16c02/g16/l1.exe "/lwork/users/sm2/679430.ccpbs1/gaussian/Gau-3193485.inp" -scrdir="/lwork/users/sm2/679430.ccpbs1/gaussian/"
 Default CPUs for threads: 48,49,50,51,52,53,54,55
 Default is to use a total of   8 processors:
                                8 via shared-memory
                                1 via Linda
 Entering Link 1 = /apl/gaussian/16c02/g16/l1.exe PID=   3193486.
  
 Copyright (c) 1988-2021, Gaussian, Inc.  All Rights Reserved.
  
 This is part of the Gaussian(R) 16 program.  It is based on
 the Gaussian(R) 09 system (copyright 2009, Gaussian, Inc.),
 the Gaussian(R) 03 system (copyright 2003, Gaussian, Inc.),
 the Gaussian(R) 98 system (copyright 1998, Gaussian, Inc.),
 the Gaussian(R) 94 system (copyright 1995, Gaussian, Inc.),
 the Gaussian 92(TM) system (copyright 1992, Gaussian, Inc.),
 the Gaussian 90(TM) system (copyright 1990, Gaussian, Inc.),
 the Gaussian 88(TM) system (copyright 1988, Gaussian, Inc.),
 the Gaussian 86(TM) system (copyright 1986, Carnegie Mellon
 University), and the Gaussian 82(TM) system (copyright 1983,
 Carnegie Mellon University). Gaussian is a federally registered
 trademark of Gaussian, Inc.
  
 This software contains proprietary and confidential information,
 including trade secrets, belonging to Gaussian, Inc.
  
 This software is provided under written license and may be
 used, copied, transmitted, or stored only in accord with that
 written license.
  
 The following legend is applicable only to US Government
 contracts under FAR:
  
                    RESTRICTED RIGHTS LEGEND
  
 Use, reproduction and disclosure by the US Government is
 subject to restrictions as set forth in subparagraphs (a)
 and (c) of the Commercial Computer Software - Restricted
 Rights clause in FAR 52.227-19.
  
 Gaussian, Inc.
 340 Quinnipiac St., Bldg. 40, Wallingford CT 06492
  
  
 ---------------------------------------------------------------
 Warning -- This program may not be used in any manner that
 competes with the business of Gaussian, Inc. or will provide
 assistance to any competitor of Gaussian, Inc.  The licensee
 of this program is prohibited from giving any competitor of
 Gaussian, Inc. access to this program.  By using this program,
 the user acknowledges that Gaussian, Inc. is engaged in the
 business of creating and licensing software in the field of
 computational chemistry and represents and warrants to the
 licensee that it is not a competitor of Gaussian, Inc. and that
 it will not use this program in any manner prohibited above.
 ---------------------------------------------------------------
  

 Cite this work as:
 Gaussian 16, Revision C.02,
 M. J. Frisch, G. W. Trucks, H. B. Schlegel, G. E. Scuseria, 
 M. A. Robb, J. R. Cheeseman, G. Scalmani, V. Barone, 
 G. A. Petersson, H. Nakatsuji, X. Li, M. Caricato, A. V. Marenich, 
 J. Bloino, B. G. Janesko, R. Gomperts, B. Mennucci, H. P. Hratchian, 
 J. V. Ortiz, A. F. Izmaylov, J. L. Sonnenberg, D. Williams-Young, 
 F. Ding, F. Lipparini, F. Egidi, J. Goings, B. Peng, A. Petrone, 
 T. Henderson, D. Ranasinghe, V. G. Zakrzewski, J. Gao, N. Rega, 
 G. Zheng, W. Liang, M. Hada, M. Ehara, K. Toyota, R. Fukuda, 
 J. Hasegawa, M. Ishida, T. Nakajima, Y. Honda, O. Kitao, H. Nakai, 
 T. Vreven, K. Throssell, J. A. Montgomery, Jr., J. E. Peralta, 
 F. Ogliaro, M. J. Bearpark, J. J. Heyd, E. N. Brothers, K. N. Kudin, 
 V. N. Staroverov, T. A. Keith, R. Kobayashi, J. Normand, 
 K. Raghavachari, A. P. Rendell, J. C. Burant, S. S. Iyengar, 
 J. Tomasi, M. Cossi, J. M. Millam, M. Klene, C. Adamo, R. Cammi, 
 J. W. Ochterski, R. L. Martin, K. Morokuma, O. Farkas, 
 J. B. Foresman, and D. J. Fox, Gaussian, Inc., Wallingford CT, 2019.
 
 ******************************************
 Gaussian 16:  ES64L-G16RevC.02  7-Dec-2021
                 5-Jun-2026 
 ******************************************
 %chk=CBP.chk
 %mem=9600MB
 SetSPE:  set environment variable "OMP_PROC_BIND" = "true"
 SetSPE:  set environment variable "OMP_PLACES" = "{48},{49},{50},{51},{52},{53},{54},{55}"
 --------------------------
 #p B3LYP/6-31G(d) opt freq
 --------------------------
 1/18=20,19=15,26=3,38=1/1,3;
 2/9=110,12=2,17=6,18=5,40=1/2;
 3/5=1,6=6,7=1,11=2,25=1,30=1,71=1,74=-5/1,2,3;
 4//1;
 5/5=2,38=5/2;
 6/7=2,8=2,9=2,10=2,28=1/1;
 7//1,2,3,16;
 1/18=20,19=15,26=3/3(2);
 2/9=110/2;
 99//99;
 2/9=110/2;
 3/5=1,6=6,7=1,11=2,25=1,30=1,71=1,74=-5/1,2,3;
 4/5=5,16=3,69=1/1;
 5/5=2,38=5/2;
 7//1,2,3,16;
 1/18=20,19=15,26=3/3(-5);
 2/9=110/2;
 6/7=2,8=2,9=2,10=2,19=2,28=1/1;
 99/9=1/99;
 Leave Link    1 at Fri Jun  5 16:57:02 2026, MaxMem=  1258291200 cpu:               0.0 elap:               0.3
 (Enter /apl/gaussian/16c02/g16/l101.exe)
 ---------------------------------
 CBP - B3LYP/6-31G(d) optimization
 ---------------------------------
 Symbolic Z-matrix:
 Charge =  0 Multiplicity = 1
 C                     6.81324   0.5669    0.70975 
 C                     6.27706  -0.01998  -0.4335 
 C                     4.8916   -0.13434  -0.57728 
 C                     4.01845   0.33436   0.41863 
 C                     2.5593    0.21296   0.26663 
 C                     1.90588   0.71657  -0.86979 
 C                     0.51889   0.60576  -1.01719 
 C                    -0.24221  -0.02014  -0.02522 
 N                    -1.65696  -0.13786  -0.1726 
 C                    -2.51034   0.87677  -0.61432 
 C                    -2.26949   2.22679  -0.94804 
 C                    -3.34394   3.02703  -1.34762 
 C                    -4.63265   2.51387  -1.39807 
 C                    -4.87696   1.18843  -1.03163 
 C                    -3.80832   0.36026  -0.62136 
 C                    -3.74359  -0.98862  -0.16531 
 C                    -4.72347  -1.98725   0.03156 
 C                    -4.34597  -3.26097   0.46272 
 C                    -3.00803  -3.55558   0.68587 
 C                    -2.02017  -2.58372   0.50113 
 C                    -2.40504  -1.28576   0.10228 
 C                     0.39157  -0.52998   1.11207 
 C                     1.77841  -0.40999   1.25363 
 C                     4.58061   0.9225    1.56404 
 C                     5.96581   1.03866   1.70888 
 H                     7.8905    0.65654   0.82197 
 H                     6.93546  -0.39215  -1.21404 
 H                     4.49424  -0.60658  -1.47356 
 H                     2.47882   1.20758  -1.65447 
 H                     0.06136   0.9777   -1.93084 
 H                    -1.27657   2.66113  -0.8839 
 H                    -3.16689   4.06693  -1.61271 
 H                    -5.45875   3.14837  -1.7086 
 H                    -5.89121   0.79983  -1.05335 
 H                    -5.77028  -1.77016  -0.16141 
 H                    -5.10303  -4.02721   0.60831 
 H                    -2.72139  -4.5569    0.99921 
 H                    -0.97778  -2.84871   0.64899 
 H                    -0.17619  -0.98724   1.91891 
 H                     2.25099  -0.81402   2.14722 
 H                     3.93645   1.30808   2.35183 
 H                     6.38059   1.50014   2.60121 
 
 ITRead=  0  0  0  0  0  0  0  0  0  0  0  0  0  0  0  0  0  0  0  0
 ITRead=  0  0  0  0  0  0  0  0  0  0  0  0  0  0  0  0  0  0  0  0
 ITRead=  0  0
 MicOpt= -1 -1 -1 -1 -1 -1 -1 -1 -1 -1 -1 -1 -1 -1 -1 -1 -1 -1 -1 -1
 MicOpt= -1 -1 -1 -1 -1 -1 -1 -1 -1 -1 -1 -1 -1 -1 -1 -1 -1 -1 -1 -1
 MicOpt= -1 -1
 NAtoms=     42 NQM=       42 NQMF=       0 NMMI=      0 NMMIF=      0
                NMic=       0 NMicF=      0.
                    Isotopes and Nuclear Properties:
 (Nuclear quadrupole moments (NQMom) in fm**2, nuclear magnetic moments (NMagM)
  in nuclear magnetons)

  Atom         1           2           3           4           5           6           7           8           9          10
 IAtWgt=          12          12          12          12          12          12          12          12          14          12
 AtmWgt=  12.0000000  12.0000000  12.0000000  12.0000000  12.0000000  12.0000000  12.0000000  12.0000000  14.0030740  12.0000000
 NucSpn=           0           0           0           0           0           0           0           0           2           0
 AtZEff=  -0.0000000  -0.0000000  -0.0000000  -0.0000000  -0.0000000  -0.0000000  -0.0000000  -0.0000000  -0.0000000  -0.0000000
 NQMom=    0.0000000   0.0000000   0.0000000   0.0000000   0.0000000   0.0000000   0.0000000   0.0000000   2.0440000   0.0000000
 NMagM=    0.0000000   0.0000000   0.0000000   0.0000000   0.0000000   0.0000000   0.0000000   0.0000000   0.4037610   0.0000000
 AtZNuc=   6.0000000   6.0000000   6.0000000   6.0000000   6.0000000   6.0000000   6.0000000   6.0000000   7.0000000   6.0000000

  Atom        11          12          13          14          15          16          17          18          19          20
 IAtWgt=          12          12          12          12          12          12          12          12          12          12
 AtmWgt=  12.0000000  12.0000000  12.0000000  12.0000000  12.0000000  12.0000000  12.0000000  12.0000000  12.0000000  12.0000000
 NucSpn=           0           0           0           0           0           0           0           0           0           0
 AtZEff=  -0.0000000  -0.0000000  -0.0000000  -0.0000000  -0.0000000  -0.0000000  -0.0000000  -0.0000000  -0.0000000  -0.0000000
 NQMom=    0.0000000   0.0000000   0.0000000   0.0000000   0.0000000   0.0000000   0.0000000   0.0000000   0.0000000   0.0000000
 NMagM=    0.0000000   0.0000000   0.0000000   0.0000000   0.0000000   0.0000000   0.0000000   0.0000000   0.0000000   0.0000000
 AtZNuc=   6.0000000   6.0000000   6.0000000   6.0000000   6.0000000   6.0000000   6.0000000   6.0000000   6.0000000   6.0000000

  Atom        21          22          23          24          25          26          27          28          29          30
 IAtWgt=          12          12          12          12          12           1           1           1           1           1
 AtmWgt=  12.0000000  12.0000000  12.0000000  12.0000000  12.0000000   1.0078250   1.0078250   1.0078250   1.0078250   1.0078250
 NucSpn=           0           0           0           0           0           1           1           1           1           1
 AtZEff=  -0.0000000  -0.0000000  -0.0000000  -0.0000000  -0.0000000  -0.0000000  -0.0000000  -0.0000000  -0.0000000  -0.0000000
 NQMom=    0.0000000   0.0000000   0.0000000   0.0000000   0.0000000   0.0000000   0.0000000   0.0000000   0.0000000   0.0000000
 NMagM=    0.0000000   0.0000000   0.0000000   0.0000000   0.0000000   2.7928460   2.7928460   2.7928460   2.7928460   2.7928460
 AtZNuc=   6.0000000   6.0000000   6.0000000   6.0000000   6.0000000   1.0000000   1.0000000   1.0000000   1.0000000   1.0000000

  Atom        31          32          33          34          35          36          37          38          39          40
 IAtWgt=           1           1           1           1           1           1           1           1           1           1
 AtmWgt=   1.0078250   1.0078250   1.0078250   1.0078250   1.0078250   1.0078250   1.0078250   1.0078250   1.0078250   1.0078250
 NucSpn=           1           1           1           1           1           1           1           1           1           1
 AtZEff=  -0.0000000  -0.0000000  -0.0000000  -0.0000000  -0.0000000  -0.0000000  -0.0000000  -0.0000000  -0.0000000  -0.0000000
 NQMom=    0.0000000   0.0000000   0.0000000   0.0000000   0.0000000   0.0000000   0.0000000   0.0000000   0.0000000   0.0000000
 NMagM=    2.7928460   2.7928460   2.7928460   2.7928460   2.7928460   2.7928460   2.7928460   2.7928460   2.7928460   2.7928460
 AtZNuc=   1.0000000   1.0000000   1.0000000   1.0000000   1.0000000   1.0000000   1.0000000   1.0000000   1.0000000   1.0000000

  Atom        41          42
 IAtWgt=           1           1
 AtmWgt=   1.0078250   1.0078250
 NucSpn=           1           1
 AtZEff=  -0.0000000  -0.0000000
 NQMom=    0.0000000   0.0000000
 NMagM=    2.7928460   2.7928460
 AtZNuc=   1.0000000   1.0000000
 Leave Link  101 at Fri Jun  5 16:57:03 2026, MaxMem=  1258291200 cpu:               0.2 elap:               0.2
 (Enter /apl/gaussian/16c02/g16/l103.exe)

 GradGradGradGradGradGradGradGradGradGradGradGradGradGradGradGradGradGrad
 Berny optimization.
 Initialization pass.
                           ----------------------------
                           !    Initial Parameters    !
                           ! (Angstroms and Degrees)  !
 --------------------------                            --------------------------
 ! Name  Definition              Value          Derivative Info.                !
 --------------------------------------------------------------------------------
 ! R1    R(1,2)                  1.3925         estimate D2E/DX2                !
 ! R2    R(1,25)                 1.3925         estimate D2E/DX2                !
 ! R3    R(1,26)                 1.0868         estimate D2E/DX2                !
 ! R4    R(2,3)                  1.3976         estimate D2E/DX2                !
 ! R5    R(2,27)                 1.0869         estimate D2E/DX2                !
 ! R6    R(3,4)                  1.405          estimate D2E/DX2                !
 ! R7    R(3,28)                 1.0882         estimate D2E/DX2                !
 ! R8    R(4,5)                  1.4721         estimate D2E/DX2                !
 ! R9    R(4,24)                 1.405          estimate D2E/DX2                !
 ! R10   R(5,6)                  1.4043         estimate D2E/DX2                !
 ! R11   R(5,23)                 1.4043         estimate D2E/DX2                !
 ! R12   R(6,7)                  1.3992         estimate D2E/DX2                !
 ! R13   R(6,29)                 1.0886         estimate D2E/DX2                !
 ! R14   R(7,8)                  1.3982         estimate D2E/DX2                !
 ! R15   R(7,30)                 1.0874         estimate D2E/DX2                !
 ! R16   R(8,9)                  1.4273         estimate D2E/DX2                !
 ! R17   R(8,22)                 1.3982         estimate D2E/DX2                !
 ! R18   R(9,10)                 1.3974         estimate D2E/DX2                !
 ! R19   R(9,21)                 1.3974         estimate D2E/DX2                !
 ! R20   R(10,11)                1.4114         estimate D2E/DX2                !
 ! R21   R(10,15)                1.397          estimate D2E/DX2                !
 ! R22   R(11,12)                1.398          estimate D2E/DX2                !
 ! R23   R(11,31)                1.0857         estimate D2E/DX2                !
 ! R24   R(12,13)                1.388          estimate D2E/DX2                !
 ! R25   R(12,32)                1.0877         estimate D2E/DX2                !
 ! R26   R(13,14)                1.3967         estimate D2E/DX2                !
 ! R27   R(13,33)                1.0869         estimate D2E/DX2                !
 ! R28   R(14,15)                1.4129         estimate D2E/DX2                !
 ! R29   R(14,34)                1.0864         estimate D2E/DX2                !
 ! R30   R(15,16)                1.4254         estimate D2E/DX2                !
 ! R31   R(16,17)                1.4129         estimate D2E/DX2                !
 ! R32   R(16,21)                1.397          estimate D2E/DX2                !
 ! R33   R(17,18)                1.3967         estimate D2E/DX2                !
 ! R34   R(17,35)                1.0864         estimate D2E/DX2                !
 ! R35   R(18,19)                1.388          estimate D2E/DX2                !
 ! R36   R(18,36)                1.0869         estimate D2E/DX2                !
 ! R37   R(19,20)                1.398          estimate D2E/DX2                !
 ! R38   R(19,37)                1.0877         estimate D2E/DX2                !
 ! R39   R(20,21)                1.4114         estimate D2E/DX2                !
 ! R40   R(20,38)                1.0857         estimate D2E/DX2                !
 ! R41   R(22,23)                1.3992         estimate D2E/DX2                !
 ! R42   R(22,39)                1.0874         estimate D2E/DX2                !
 ! R43   R(23,40)                1.0886         estimate D2E/DX2                !
 ! R44   R(24,25)                1.3976         estimate D2E/DX2                !
 ! R45   R(24,41)                1.0882         estimate D2E/DX2                !
 ! R46   R(25,42)                1.0869         estimate D2E/DX2                !
 ! A1    A(2,1,25)             119.839          estimate D2E/DX2                !
 ! A2    A(2,1,26)             120.0806         estimate D2E/DX2                !
 ! A3    A(25,1,26)            120.0804         estimate D2E/DX2                !
 ! A4    A(1,2,3)              120.0443         estimate D2E/DX2                !
 ! A5    A(1,2,27)             120.0464         estimate D2E/DX2                !
 ! A6    A(3,2,27)             119.9091         estimate D2E/DX2                !
 ! A7    A(2,3,4)              121.0552         estimate D2E/DX2                !
 ! A8    A(2,3,28)             118.8303         estimate D2E/DX2                !
 ! A9    A(4,3,28)             120.1103         estimate D2E/DX2                !
 ! A10   A(3,4,5)              121.0189         estimate D2E/DX2                !
 ! A11   A(3,4,24)             117.962          estimate D2E/DX2                !
 ! A12   A(5,4,24)             121.0191         estimate D2E/DX2                !
 ! A13   A(4,5,6)              121.0112         estimate D2E/DX2                !
 ! A14   A(4,5,23)             121.0115         estimate D2E/DX2                !
 ! A15   A(6,5,23)             117.9773         estimate D2E/DX2                !
 ! A16   A(5,6,7)              121.2046         estimate D2E/DX2                !
 ! A17   A(5,6,29)             120.0115         estimate D2E/DX2                !
 ! A18   A(7,6,29)             118.7834         estimate D2E/DX2                !
 ! A19   A(6,7,8)              120.0195         estimate D2E/DX2                !
 ! A20   A(6,7,30)             118.5882         estimate D2E/DX2                !
 ! A21   A(8,7,30)             121.3443         estimate D2E/DX2                !
 ! A22   A(7,8,9)              120.2131         estimate D2E/DX2                !
 ! A23   A(7,8,22)             119.5739         estimate D2E/DX2                !
 ! A24   A(9,8,22)             120.2131         estimate D2E/DX2                !
 ! A25   A(8,9,10)             125.3148         estimate D2E/DX2                !
 ! A26   A(8,9,21)             125.3144         estimate D2E/DX2                !
 ! A27   A(10,9,21)            109.3709         estimate D2E/DX2                !
 ! A28   A(9,10,11)            131.6854         estimate D2E/DX2                !
 ! A29   A(9,10,15)            107.4895         estimate D2E/DX2                !
 ! A30   A(11,10,15)           120.7322         estimate D2E/DX2                !
 ! A31   A(10,11,12)           118.9443         estimate D2E/DX2                !
 ! A32   A(10,11,31)           121.654          estimate D2E/DX2                !
 ! A33   A(12,11,31)           119.3915         estimate D2E/DX2                !
 ! A34   A(11,12,13)           120.8181         estimate D2E/DX2                !
 ! A35   A(11,12,32)           119.4609         estimate D2E/DX2                !
 ! A36   A(13,12,32)           119.7184         estimate D2E/DX2                !
 ! A37   A(12,13,14)           120.2457         estimate D2E/DX2                !
 ! A38   A(12,13,33)           120.0132         estimate D2E/DX2                !
 ! A39   A(14,13,33)           119.734          estimate D2E/DX2                !
 ! A40   A(13,14,15)           120.0093         estimate D2E/DX2                !
 ! A41   A(13,14,34)           119.8359         estimate D2E/DX2                !
 ! A42   A(15,14,34)           120.1518         estimate D2E/DX2                !
 ! A43   A(10,15,14)           119.1763         estimate D2E/DX2                !
 ! A44   A(10,15,16)           107.8234         estimate D2E/DX2                !
 ! A45   A(14,15,16)           132.998          estimate D2E/DX2                !
 ! A46   A(15,16,17)           132.9981         estimate D2E/DX2                !
 ! A47   A(15,16,21)           107.8234         estimate D2E/DX2                !
 ! A48   A(17,16,21)           119.1762         estimate D2E/DX2                !
 ! A49   A(16,17,18)           120.0094         estimate D2E/DX2                !
 ! A50   A(16,17,35)           120.1519         estimate D2E/DX2                !
 ! A51   A(18,17,35)           119.8358         estimate D2E/DX2                !
 ! A52   A(17,18,19)           120.2457         estimate D2E/DX2                !
 ! A53   A(17,18,36)           119.7341         estimate D2E/DX2                !
 ! A54   A(19,18,36)           120.0133         estimate D2E/DX2                !
 ! A55   A(18,19,20)           120.818          estimate D2E/DX2                !
 ! A56   A(18,19,37)           119.7184         estimate D2E/DX2                !
 ! A57   A(20,19,37)           119.461          estimate D2E/DX2                !
 ! A58   A(19,20,21)           118.9444         estimate D2E/DX2                !
 ! A59   A(19,20,38)           119.3914         estimate D2E/DX2                !
 ! A60   A(21,20,38)           121.6541         estimate D2E/DX2                !
 ! A61   A(9,21,16)            107.4895         estimate D2E/DX2                !
 ! A62   A(9,21,20)            131.6853         estimate D2E/DX2                !
 ! A63   A(16,21,20)           120.7323         estimate D2E/DX2                !
 ! A64   A(8,22,23)            120.0196         estimate D2E/DX2                !
 ! A65   A(8,22,39)            121.3442         estimate D2E/DX2                !
 ! A66   A(23,22,39)           118.5882         estimate D2E/DX2                !
 ! A67   A(5,23,22)            121.2044         estimate D2E/DX2                !
 ! A68   A(5,23,40)            120.0115         estimate D2E/DX2                !
 ! A69   A(22,23,40)           118.7835         estimate D2E/DX2                !
 ! A70   A(4,24,25)            121.0552         estimate D2E/DX2                !
 ! A71   A(4,24,41)            120.1103         estimate D2E/DX2                !
 ! A72   A(25,24,41)           118.8303         estimate D2E/DX2                !
 ! A73   A(1,25,24)            120.0444         estimate D2E/DX2                !
 ! A74   A(1,25,42)            120.0464         estimate D2E/DX2                !
 ! A75   A(24,25,42)           119.909          estimate D2E/DX2                !
 ! D1    D(25,1,2,3)             0.0269         estimate D2E/DX2                !
 ! D2    D(25,1,2,27)         -179.8089         estimate D2E/DX2                !
 ! D3    D(26,1,2,3)          -179.9729         estimate D2E/DX2                !
 ! D4    D(26,1,2,27)            0.1913         estimate D2E/DX2                !
 ! D5    D(2,1,25,24)            0.0274         estimate D2E/DX2                !
 ! D6    D(2,1,25,42)         -179.8084         estimate D2E/DX2                !
 ! D7    D(26,1,25,24)        -179.9728         estimate D2E/DX2                !
 ! D8    D(26,1,25,42)           0.1914         estimate D2E/DX2                !
 ! D9    D(1,2,3,4)             -0.055          estimate D2E/DX2                !
 ! D10   D(1,2,3,28)          -179.3093         estimate D2E/DX2                !
 ! D11   D(27,2,3,4)           179.7811         estimate D2E/DX2                !
 ! D12   D(27,2,3,28)            0.5268         estimate D2E/DX2                !
 ! D13   D(2,3,4,5)           -179.9727         estimate D2E/DX2                !
 ! D14   D(2,3,4,24)             0.0276         estimate D2E/DX2                !
 ! D15   D(28,3,4,5)            -0.7279         estimate D2E/DX2                !
 ! D16   D(28,3,4,24)          179.2724         estimate D2E/DX2                !
 ! D17   D(3,4,5,6)            -54.1362         estimate D2E/DX2                !
 ! D18   D(3,4,5,23)           125.8637         estimate D2E/DX2                !
 ! D19   D(24,4,5,6)           125.8635         estimate D2E/DX2                !
 ! D20   D(24,4,5,23)          -54.1366         estimate D2E/DX2                !
 ! D21   D(3,4,24,25)            0.0274         estimate D2E/DX2                !
 ! D22   D(3,4,24,41)          179.2719         estimate D2E/DX2                !
 ! D23   D(5,4,24,25)         -179.9723         estimate D2E/DX2                !
 ! D24   D(5,4,24,41)           -0.7277         estimate D2E/DX2                !
 ! D25   D(4,5,6,7)           -179.8708         estimate D2E/DX2                !
 ! D26   D(4,5,6,29)            -0.1259         estimate D2E/DX2                !
 ! D27   D(23,5,6,7)             0.1293         estimate D2E/DX2                !
 ! D28   D(23,5,6,29)          179.8742         estimate D2E/DX2                !
 ! D29   D(4,5,23,22)         -179.8702         estimate D2E/DX2                !
 ! D30   D(4,5,23,40)           -0.1256         estimate D2E/DX2                !
 ! D31   D(6,5,23,22)            0.1297         estimate D2E/DX2                !
 ! D32   D(6,5,23,40)          179.8743         estimate D2E/DX2                !
 ! D33   D(5,6,7,8)             -0.259          estimate D2E/DX2                !
 ! D34   D(5,6,7,30)          -177.7742         estimate D2E/DX2                !
 ! D35   D(29,6,7,8)           179.9931         estimate D2E/DX2                !
 ! D36   D(29,6,7,30)            2.4778         estimate D2E/DX2                !
 ! D37   D(6,7,8,9)           -179.8725         estimate D2E/DX2                !
 ! D38   D(6,7,8,22)             0.1273         estimate D2E/DX2                !
 ! D39   D(30,7,8,9)            -2.4272         estimate D2E/DX2                !
 ! D40   D(30,7,8,22)          177.5726         estimate D2E/DX2                !
 ! D41   D(7,8,9,10)           -43.9396         estimate D2E/DX2                !
 ! D42   D(7,8,9,21)           136.0597         estimate D2E/DX2                !
 ! D43   D(22,8,9,10)          136.0607         estimate D2E/DX2                !
 ! D44   D(22,8,9,21)          -43.94           estimate D2E/DX2                !
 ! D45   D(7,8,22,23)            0.1276         estimate D2E/DX2                !
 ! D46   D(7,8,22,39)          177.5726         estimate D2E/DX2                !
 ! D47   D(9,8,22,23)         -179.8726         estimate D2E/DX2                !
 ! D48   D(9,8,22,39)           -2.4277         estimate D2E/DX2                !
 ! D49   D(8,9,10,11)           -3.7691         estimate D2E/DX2                !
 ! D50   D(8,9,10,15)          179.8141         estimate D2E/DX2                !
 ! D51   D(21,9,10,11)         176.2315         estimate D2E/DX2                !
 ! D52   D(21,9,10,15)          -0.1853         estimate D2E/DX2                !
 ! D53   D(8,9,21,16)          179.813          estimate D2E/DX2                !
 ! D54   D(8,9,21,20)           -3.7706         estimate D2E/DX2                !
 ! D55   D(10,9,21,16)          -0.1876         estimate D2E/DX2                !
 ! D56   D(10,9,21,20)         176.2288         estimate D2E/DX2                !
 ! D57   D(9,10,11,12)        -178.9841         estimate D2E/DX2                !
 ! D58   D(9,10,11,31)          -0.1499         estimate D2E/DX2                !
 ! D59   D(15,10,11,12)         -2.9606         estimate D2E/DX2                !
 ! D60   D(15,10,11,31)        175.8736         estimate D2E/DX2                !
 ! D61   D(9,10,15,14)         179.9968         estimate D2E/DX2                !
 ! D62   D(9,10,15,16)           0.4787         estimate D2E/DX2                !
 ! D63   D(11,10,15,14)          3.1094         estimate D2E/DX2                !
 ! D64   D(11,10,15,16)       -176.4087         estimate D2E/DX2                !
 ! D65   D(10,11,12,13)          0.9673         estimate D2E/DX2                !
 ! D66   D(10,11,12,32)       -179.6188         estimate D2E/DX2                !
 ! D67   D(31,11,12,13)       -177.8937         estimate D2E/DX2                !
 ! D68   D(31,11,12,32)          1.5202         estimate D2E/DX2                !
 ! D69   D(11,12,13,14)          0.8323         estimate D2E/DX2                !
 ! D70   D(11,12,13,33)        179.8672         estimate D2E/DX2                !
 ! D71   D(32,12,13,14)       -178.5801         estimate D2E/DX2                !
 ! D72   D(32,12,13,33)          0.4548         estimate D2E/DX2                !
 ! D73   D(12,13,14,15)         -0.6806         estimate D2E/DX2                !
 ! D74   D(12,13,14,34)        178.6974         estimate D2E/DX2                !
 ! D75   D(33,13,14,15)       -179.7181         estimate D2E/DX2                !
 ! D76   D(33,13,14,34)         -0.3401         estimate D2E/DX2                !
 ! D77   D(13,14,15,10)         -1.2787         estimate D2E/DX2                !
 ! D78   D(13,14,15,16)        178.094          estimate D2E/DX2                !
 ! D79   D(34,14,15,10)        179.3453         estimate D2E/DX2                !
 ! D80   D(34,14,15,16)         -1.282          estimate D2E/DX2                !
 ! D81   D(10,15,16,17)        179.9789         estimate D2E/DX2                !
 ! D82   D(10,15,16,21)         -0.5978         estimate D2E/DX2                !
 ! D83   D(14,15,16,17)          0.5543         estimate D2E/DX2                !
 ! D84   D(14,15,16,21)        179.9775         estimate D2E/DX2                !
 ! D85   D(15,16,17,18)        178.0915         estimate D2E/DX2                !
 ! D86   D(15,16,17,35)         -1.2834         estimate D2E/DX2                !
 ! D87   D(21,16,17,18)         -1.2797         estimate D2E/DX2                !
 ! D88   D(21,16,17,35)        179.3454         estimate D2E/DX2                !
 ! D89   D(15,16,21,9)           0.4801         estimate D2E/DX2                !
 ! D90   D(15,16,21,20)       -176.4069         estimate D2E/DX2                !
 ! D91   D(17,16,21,9)         179.997          estimate D2E/DX2                !
 ! D92   D(17,16,21,20)          3.11           estimate D2E/DX2                !
 ! D93   D(16,17,18,19)         -0.6801         estimate D2E/DX2                !
 ! D94   D(16,17,18,36)       -179.7172         estimate D2E/DX2                !
 ! D95   D(35,17,18,19)        178.6969         estimate D2E/DX2                !
 ! D96   D(35,17,18,36)         -0.3403         estimate D2E/DX2                !
 ! D97   D(17,18,19,20)          0.8326         estimate D2E/DX2                !
 ! D98   D(17,18,19,37)       -178.5796         estimate D2E/DX2                !
 ! D99   D(36,18,19,20)        179.8671         estimate D2E/DX2                !
 ! D100  D(36,18,19,37)          0.4549         estimate D2E/DX2                !
 ! D101  D(18,19,20,21)          0.9667         estimate D2E/DX2                !
 ! D102  D(18,19,20,38)       -177.8935         estimate D2E/DX2                !
 ! D103  D(37,19,20,21)       -179.6196         estimate D2E/DX2                !
 ! D104  D(37,19,20,38)          1.5202         estimate D2E/DX2                !
 ! D105  D(19,20,21,9)        -178.9834         estimate D2E/DX2                !
 ! D106  D(19,20,21,16)         -2.9604         estimate D2E/DX2                !
 ! D107  D(38,20,21,9)          -0.15           estimate D2E/DX2                !
 ! D108  D(38,20,21,16)        175.873          estimate D2E/DX2                !
 ! D109  D(8,22,23,5)           -0.2593         estimate D2E/DX2                !
 ! D110  D(8,22,23,40)         179.9931         estimate D2E/DX2                !
 ! D111  D(39,22,23,5)        -177.7742         estimate D2E/DX2                !
 ! D112  D(39,22,23,40)          2.4781         estimate D2E/DX2                !
 ! D113  D(4,24,25,1)           -0.0551         estimate D2E/DX2                !
 ! D114  D(4,24,25,42)         179.7809         estimate D2E/DX2                !
 ! D115  D(41,24,25,1)        -179.3092         estimate D2E/DX2                !
 ! D116  D(41,24,25,42)          0.5268         estimate D2E/DX2                !
 --------------------------------------------------------------------------------
 Trust Radius=3.00D-01 FncErr=1.00D-07 GrdErr=1.00D-06 EigMax=2.50D+02 EigMin=1.00D-04
 Number of steps in this run=    247 maximum allowed number of steps=    252.
 GradGradGradGradGradGradGradGradGradGradGradGradGradGradGradGradGradGrad

 Leave Link  103 at Fri Jun  5 16:57:03 2026, MaxMem=  1258291200 cpu:               0.0 elap:               0.1
 (Enter /apl/gaussian/16c02/g16/l202.exe)
                          Input orientation:                          
 ---------------------------------------------------------------------
 Center     Atomic      Atomic             Coordinates (Angstroms)
 Number     Number       Type             X           Y           Z
 ---------------------------------------------------------------------
      1          6           0        6.813241    0.566904    0.709752
      2          6           0        6.277064   -0.019975   -0.433502
      3          6           0        4.891599   -0.134342   -0.577281
      4          6           0        4.018447    0.334363    0.418625
      5          6           0        2.559298    0.212957    0.266626
      6          6           0        1.905876    0.716567   -0.869793
      7          6           0        0.518888    0.605756   -1.017193
      8          6           0       -0.242208   -0.020143   -0.025218
      9          7           0       -1.656962   -0.137861   -0.172600
     10          6           0       -2.510335    0.876773   -0.614319
     11          6           0       -2.269488    2.226791   -0.948037
     12          6           0       -3.343937    3.027033   -1.347623
     13          6           0       -4.632655    2.513867   -1.398072
     14          6           0       -4.876965    1.188425   -1.031635
     15          6           0       -3.808324    0.360258   -0.621357
     16          6           0       -3.743591   -0.988621   -0.165314
     17          6           0       -4.723470   -1.987250    0.031560
     18          6           0       -4.345971   -3.260968    0.462724
     19          6           0       -3.008029   -3.555577    0.685866
     20          6           0       -2.020166   -2.583721    0.501135
     21          6           0       -2.405040   -1.285757    0.102277
     22          6           0        0.391575   -0.529982    1.112066
     23          6           0        1.778408   -0.409994    1.253629
     24          6           0        4.580607    0.922496    1.564042
     25          6           0        5.965812    1.038665    1.708877
     26          1           0        7.890499    0.656539    0.821970
     27          1           0        6.935464   -0.392148   -1.214045
     28          1           0        4.494245   -0.606578   -1.473558
     29          1           0        2.478820    1.207584   -1.654473
     30          1           0        0.061358    0.977703   -1.930844
     31          1           0       -1.276569    2.661132   -0.883901
     32          1           0       -3.166894    4.066926   -1.612705
     33          1           0       -5.458751    3.148365   -1.708597
     34          1           0       -5.891213    0.799834   -1.053349
     35          1           0       -5.770278   -1.770157   -0.161412
     36          1           0       -5.103026   -4.027208    0.608311
     37          1           0       -2.721390   -4.556903    0.999206
     38          1           0       -0.977778   -2.848710    0.648991
     39          1           0       -0.176193   -0.987238    1.918909
     40          1           0        2.250992   -0.814019    2.147225
     41          1           0        3.936452    1.308079    2.351826
     42          1           0        6.380589    1.500137    2.601210
 ---------------------------------------------------------------------
                    Distance matrix (angstroms):
                    1          2          3          4          5
     1  C    0.000000
     2  C    1.392460   0.000000
     3  C    2.416797   1.397593   0.000000
     4  C    2.819522   2.439883   1.404959   0.000000
     5  C    4.291581   3.790280   2.504481   1.472059   0.000000
     6  C    5.157479   4.454226   3.118357   2.503808   1.404290
     7  C    6.527077   5.821411   4.456666   3.792380   2.442490
     8  C    7.117876   6.532044   5.164668   4.298354   2.826295
     9  N    8.545149   7.939189   6.561054   5.725627   4.253567
    10  C    9.422221   8.834887   7.470767   6.632207   5.188246
    11  C    9.380802   8.851906   7.549409   6.707247   5.371043
    12  C   10.651446  10.133289   8.855043   8.035845   6.735949
    13  C   11.800090  11.241562   9.919583   9.104514   7.732373
    14  C   11.835524  11.235228   9.868181   9.053233   7.611506
    15  C   10.706643  10.094301   8.714083   7.895605   6.430927
    16  C   10.706638  10.070934   8.687117   7.895600   6.430922
    17  C   11.835513  11.184731   9.810888   9.053222   7.611497
    18  C   11.800070  11.142537   9.807655   9.104495   7.732357
    19  C   10.651421   9.998321   8.700834   8.035820   6.735929
    20  C    9.380780   8.734436   7.411811   6.707225   5.371023
    21  C    9.422212   8.790233   7.418120   6.632198   5.188237
    22  C    6.527083   6.106380   4.822929   3.792381   2.442489
    23  C    5.157487   4.820418   3.622178   2.503811   1.404290
    24  C    2.416797   2.785031   2.408087   1.404957   2.504481
    25  C    1.392459   2.409851   2.785031   2.439882   3.790280
    26  H    1.086790   2.153382   3.402469   3.906312   5.378371
    27  H    2.153071   1.086853   2.156227   3.420880   4.659332
    28  H    3.394355   2.145755   1.088214   2.166128   2.728351
    29  H    4.978678   4.174246   2.963548   2.725932   2.164805
    30  H    7.261503   6.470888   5.138094   4.646767   3.413710
    31  H    8.507087   8.027986   6.779011   5.928542   4.693735
    32  H   10.828068  10.357684   9.146697   8.347901   7.153617
    33  H   12.771615  12.222668  10.917225  10.112416   8.763974
    34  H   12.828325  12.211603  10.833668  10.029193   8.573091
    35  H   12.828317  12.176847  10.794649  10.029186   8.573085
    36  H   12.771593  12.109903  10.791319  10.112396   8.763958
    37  H   10.828036  10.178828   8.944381   8.347871   7.153593
    38  H    8.507061   7.861696   6.581878   5.928514   4.693710
    39  H    7.261516   6.936423   5.713223   4.646772   3.413710
    40  H    4.978693   4.847671   3.854568   2.725937   2.164805
    41  H    3.394357   3.873015   3.401845   2.166128   2.728352
    42  H    2.153073   3.395723   3.871875   3.420880   4.659333
                    6          7          8          9         10
     6  C    0.000000
     7  C    1.399194   0.000000
     8  C    2.422873   1.398224   0.000000
     9  N    3.729603   2.449617   1.427272   0.000000
    10  C    4.426495   3.067890   2.509163   1.397442   0.000000
    11  C    4.440784   3.226077   3.163885   2.562824   1.411355
    12  C    5.755616   4.570906   4.544750   3.774005   2.419967
    13  C    6.801599   5.506754   5.251853   4.169915   2.792595
    14  C    6.801160   5.427240   4.894331   3.586836   2.423265
    15  C    5.730686   4.352208   3.635556   2.253412   1.397001
    16  C    5.943099   4.629952   3.635555   2.253412   2.280838
    17  C    7.216045   5.941875   4.894328   3.586837   3.676650
    18  C    7.528744   6.388158   5.251848   4.169917   4.653009
    19  C    6.694606   5.714564   4.544744   3.774008   4.645849
    20  C    5.308969   4.350273   3.163877   2.562824   3.668722
    21  C    4.851620   3.657921   2.509159   1.397442   2.280599
    22  C    2.788325   2.416579   1.398225   2.449618   3.657929
    23  C    2.407136   2.788328   2.422875   3.729605   4.851631
    24  C    3.622174   4.822931   5.164674   6.561063   7.418140
    25  C    4.820411   6.106378   6.532050   7.939197   8.790252
    26  H    6.219435   7.597747   8.204666   9.631939  10.501846
    27  H    5.161832   6.496693   7.284962   8.659044   9.549500
    28  H    2.968989   4.181087   4.987542   6.304723   7.211294
    29  H    1.088616   2.147011   3.400849   4.594655   5.107154
    30  H    2.143891   1.087398   2.172385   2.699727   2.890853
    31  H    3.729543   2.732398   2.999412   2.912903   2.186044
    32  H    6.124526   5.091102   5.270487   4.694042   3.406599
    33  H    7.800960   6.532616   6.331313   5.254728   3.879527
    34  H    7.799694   6.413139   5.800058   4.425367   3.410132
    35  H    8.099934   6.777236   5.800056   4.425368   4.223575
    36  H    8.591443   7.464083   6.331310   5.254732   5.680308
    37  H    7.260457   6.420149   5.270482   4.694047   5.672111
    38  H    4.830462   4.116979   2.999403   2.912904   4.221837
    39  H    3.874896   3.411959   2.172386   2.699727   3.916631
    40  H    3.400616   3.876788   3.400852   4.594658   5.758050
    41  H    3.853823   4.850082   4.987555   6.304740   7.109508
    42  H    5.717071   6.946388   7.284972   8.659058   9.475059
                   11         12         13         14         15
    11  C    0.000000
    12  C    1.398034   0.000000
    13  C    2.422706   1.388048   0.000000
    14  C    2.807869   2.414643   1.396696   0.000000
    15  C    2.441041   2.802642   2.433277   1.412863   0.000000
    16  C    3.622776   4.205122   3.818056   2.602802   1.425356
    17  C    4.973910   5.380361   4.723574   3.352440   2.602804
    18  C    6.034694   6.619697   6.074000   4.723575   3.818059
    19  C    6.053995   6.897729   6.619695   5.380361   4.205125
    20  C    5.030236   6.053993   6.034690   4.973908   3.622776
    21  C    3.668722   4.645846   4.653005   3.676648   2.280837
    22  C    4.350295   5.714584   6.388168   5.941875   4.629950
    23  C    5.308995   6.694631   7.528759   7.216049   5.943100
    24  C    7.411850   8.700877   9.807690   9.810908   8.687131
    25  C    8.734472   9.998362  11.142570  11.184751  10.070947
    26  H   10.431871  11.684988  12.853312  12.912276  11.791244
    27  H    9.573961  10.833962  11.928963  11.919101  10.786398
    28  H    7.352022   8.640375   9.645889   9.551801   8.402004
    29  H    4.907571   6.108113   7.234997   7.382131   6.427555
    30  H    2.821165   4.016956   4.967635   5.023944   4.131638
    31  H    1.085658   2.150101   3.398437   3.892755   3.431142
    32  H    2.152492   1.087654   2.146279   3.398198   3.890191
    33  H    3.405753   2.148828   1.086945   2.153629   3.417534
    34  H    3.894122   3.396413   2.154231   1.086358   2.172158
    35  H    5.371210   5.505202   4.601779   3.210685   2.932487
    36  H    7.040146   7.528770   6.858023   5.472052   4.736897
    37  H    7.072091   7.963118   7.706858   6.463715   5.290191
    38  H    5.475374   6.641501   6.804838   5.858893   4.463547
    39  H    4.788657   6.067883   6.566593   5.961247   4.632610
    40  H    6.265932   7.633536   8.427844   8.057462   6.764561
    41  H    7.088498   8.345346   9.431079   9.441315   8.349835
    42  H    9.378113  10.606182  11.760674  11.833311  10.747010
                   16         17         18         19         20
    16  C    0.000000
    17  C    1.412864   0.000000
    18  C    2.433281   1.396698   0.000000
    19  C    2.802646   2.414644   1.388048   0.000000
    20  C    2.441042   2.807870   2.422707   1.398035   0.000000
    21  C    1.397001   2.423265   2.792597   2.419970   1.411356
    22  C    4.352200   5.427229   5.506748   4.570905   3.226077
    23  C    5.730679   6.801148   6.801589   5.755608   4.440777
    24  C    8.714087   9.868180   9.919580   8.855040   7.549406
    25  C   10.094305  11.235227  11.241558  10.133283   8.851902
    26  H   11.791239  12.912265  12.853292  11.684963  10.431850
    27  H   10.746991  11.833285  11.760632  10.606130   9.378067
    28  H    8.349814   9.441287   9.431033   8.345287   7.088445
    29  H    6.764562   8.057460   8.427826   7.633505   6.265901
    30  H    4.632619   5.961255   6.566586   6.067861   4.788632
    31  H    4.463548   5.858895   6.804844   6.641506   5.475376
    32  H    5.290187   6.463713   7.706858   7.963116   7.072086
    33  H    4.736893   5.472050   6.858022   7.528767   7.040141
    34  H    2.932483   3.210683   4.601778   5.505200   5.371207
    35  H    2.172159   1.086358   2.154232   3.396414   3.894123
    36  H    3.417539   2.153632   1.086946   2.148829   3.405755
    37  H    3.890197   3.398202   2.146281   1.087656   2.152496
    38  H    3.431143   3.892756   3.398438   2.150102   1.085659
    39  H    4.131623   5.023927   4.967632   4.016970   2.821184
    40  H    6.427546   7.382116   7.234986   6.108110   4.907571
    41  H    8.402016   9.551810   9.645902   8.640392   7.352038
    42  H   10.786408  11.919107  11.928971  10.833971   9.573970
                   21         22         23         24         25
    21  C    0.000000
    22  C    3.067886   0.000000
    23  C    4.426490   1.399194   0.000000
    24  C    7.470770   4.456677   3.118366   0.000000
    25  C    8.834889   5.821423   4.454236   1.397593   0.000000
    26  H   10.501838   7.597753   6.219443   3.402468   2.153380
    27  H    9.475034   6.946386   5.717076   3.871874   3.395721
    28  H    7.109478   4.850074   3.853824   3.401843   3.873013
    29  H    5.758039   3.876786   3.400616   3.854558   4.847656
    30  H    3.916625   3.411958   3.874897   5.713220   6.936416
    31  H    4.221839   4.117013   4.830500   6.581928   7.861741
    32  H    5.672107   6.420174   7.260489   8.944436  10.178880
    33  H    5.680304   7.464093   8.591459  10.791356  12.109939
    34  H    4.223572   6.777230   8.099933  10.794665  12.176862
    35  H    3.410132   6.413128   7.799682  10.833669  12.211604
    36  H    3.879530   6.532610   7.800950  10.917222  12.222663
    37  H    3.406605   5.091108   6.124522   9.146694  10.357678
    38  H    2.186046   2.732410   3.729542   6.779009   8.027981
    39  H    2.890852   1.087400   2.143893   5.138109   6.470906
    40  H    5.107150   2.147013   1.088616   2.963561   4.174263
    41  H    7.211309   4.181103   2.969000   1.088216   2.145756
    42  H    9.549511   6.496709   5.161845   2.156229   1.086855
                   26         27         28         29         30
    26  H    0.000000
    27  H    2.481369   0.000000
    28  H    4.289458   2.464321   0.000000
    29  H    5.976846   4.755502   2.717693   0.000000
    30  H    8.305214   7.045823   4.729645   2.444043   0.000000
    31  H    9.537480   8.767496   6.657921   4.099942   2.391667
    32  H   11.824733  11.049883   8.975191   6.328638   4.479522
    33  H   13.813596  12.899472  10.640346   8.171572   5.935720
    34  H   13.909455  12.882945  10.488675   8.401491   6.019529
    35  H   13.909447  12.823526  10.413264   8.896279   6.685028
    36  H   13.813574  12.706687  10.399158   9.487235   7.626749
    37  H   11.824702  10.747023   8.589820   8.204481   6.852791
    38  H    9.537454   8.492644   6.282945   5.805819   4.730411
    39  H    8.305228   7.793921   5.785043   4.963406   4.328743
    40  H    5.976862   5.781037   4.264420   4.311808   4.963406
    41  H    4.289458   4.959867   4.314001   4.264413   5.785046
    42  H    2.481367   4.294741   4.959867   5.781023   7.793916
                   31         32         33         34         35
    31  H    0.000000
    32  H    2.465916   0.000000
    33  H    4.290474   2.470943   0.000000
    34  H    4.978763   4.290534   2.476282   0.000000
    35  H    6.352301   6.554036   5.165528   2.723055   0.000000
    36  H    7.848717   8.613740   7.548738   5.165528   2.476283
    37  H    7.598265   9.021695   8.613739   6.554036   4.290537
    38  H    5.726901   7.598258   7.848710   6.352297   4.978763
    39  H    4.730451   6.852821   7.626757   6.685012   6.019508
    40  H    5.805866   8.204522   9.487254   8.896274   8.401474
    41  H    6.283014   8.589893  10.399208  10.413286  10.488684
    42  H    8.492701  10.747089  12.706733  12.823546  12.882953
                   36         37         38         39         40
    36  H    0.000000
    37  H    2.470944   0.000000
    38  H    4.290476   2.465919   0.000000
    39  H    5.935720   4.479552   2.391717   0.000000
    40  H    8.171562   6.328642   4.099955   2.444046   0.000000
    41  H   10.640362   8.975213   6.657942   4.729667   2.717707
    42  H   12.899481  11.049895   8.767508   7.045847   4.755522
                   41         42
    41  H    0.000000
    42  H    2.464322   0.000000
 Stoichiometry    C24H17N
 Framework group  C1[X(C24H17N)]
 Deg. of freedom   120
 Full point group                 C1      NOp   1
 Largest Abelian subgroup         C1      NOp   1
 Largest concise Abelian subgroup C1      NOp   1
                         Standard orientation:                         
 ---------------------------------------------------------------------
 Center     Atomic      Atomic             Coordinates (Angstroms)
 Number     Number       Type             X           Y           Z
 ---------------------------------------------------------------------
      1          6           0       -7.000165   -0.000002   -0.000013
      2          6           0       -6.302235    0.140605   -1.196703
      3          6           0       -4.904642    0.139934   -1.195885
      4          6           0       -4.180643    0.000001    0.000005
      5          6           0       -2.708584   -0.000001    0.000012
      6          6           0       -1.985083   -0.886831   -0.813688
      7          6           0       -0.585899   -0.892138   -0.814886
      8          6           0        0.117711   -0.000005    0.000013
      9          7           0        1.544984   -0.000005    0.000012
     10          6           0        2.352801   -1.139895    0.030458
     11          6           0        2.037180   -2.511420    0.136404
     12          6           0        3.077466   -3.445021    0.162726
     13          6           0        4.402414   -3.035129    0.106347
     14          6           0        4.716061   -1.675743    0.039584
     15          6           0        3.682732   -0.712522    0.014716
     16          6           0        3.682726    0.712531   -0.014682
     17          6           0        4.716046    1.675763   -0.039554
     18          6           0        4.402388    3.035145   -0.106368
     19          6           0        3.077437    3.445023   -0.162782
     20          6           0        2.037159    2.511412   -0.136441
     21          6           0        2.352792    1.139891   -0.030451
     22          6           0       -0.585899    0.892131    0.814911
     23          6           0       -1.985083    0.886826    0.813716
     24          6           0       -4.904656   -0.139937    1.195884
     25          6           0       -6.302249   -0.140611    1.196685
     26          1           0       -8.086955   -0.000003   -0.000018
     27          1           0       -6.843565    0.253700   -2.132342
     28          1           0       -4.379275    0.262559   -2.140957
     29          1           0       -2.512472   -1.589941   -1.456014
     30          1           0       -0.068716   -1.571265   -1.488490
     31          1           0        1.010524   -2.855270    0.216398
     32          1           0        2.843581   -4.504568    0.237889
     33          1           0        5.200998   -3.772121    0.129881
     34          1           0        5.755704   -1.361405    0.017105
     35          1           0        5.755693    1.361436   -0.017056
     36          1           0        5.200967    3.772145   -0.129920
     37          1           0        2.843543    4.504567   -0.237993
     38          1           0        1.010501    2.855249   -0.216466
     39          1           0       -0.068713    1.571256    1.488517
     40          1           0       -2.512472    1.589937    1.456040
     41          1           0       -4.379299   -0.262566    2.140964
     42          1           0       -6.843591   -0.253713    2.132319
 ---------------------------------------------------------------------
 Rotational constants (GHZ):           0.4876290           0.1049043           0.0903222
 Leave Link  202 at Fri Jun  5 16:57:03 2026, MaxMem=  1258291200 cpu:               0.0 elap:               0.1
 (Enter /apl/gaussian/16c02/g16/l301.exe)
 Standard basis: 6-31G(d) (6D, 7F)
 Ernie: Thresh=  0.10000D-02 Tol=  0.10000D-05 Strict=F.
 There are   409 symmetry adapted cartesian basis functions of A   symmetry.
 There are   409 symmetry adapted basis functions of A   symmetry.
   409 basis functions,   768 primitive gaussians,   409 cartesian basis functions
    84 alpha electrons       84 beta electrons
       nuclear repulsion energy      1873.6075772125 Hartrees.
 IExCor=  402 DFT=T Ex+Corr=B3LYP ExCW=0 ScaHFX=  0.200000
 ScaDFX=  0.800000  0.720000  1.000000  0.810000 ScalE2=  1.000000  1.000000
 IRadAn=      5 IRanWt=     -1 IRanGd=            0 ICorTp=0 IEmpDi=  4
 NAtoms=   42 NActive=   42 NUniq=   42 SFac= 1.00D+00 NAtFMM=   60 NAOKFM=F Big=F
 Integral buffers will be    131072 words long.
 Raffenetti 2 integral format.
 Two-electron integral symmetry is turned on.
 Leave Link  301 at Fri Jun  5 16:57:03 2026, MaxMem=  1258291200 cpu:               0.1 elap:               0.1
 (Enter /apl/gaussian/16c02/g16/l302.exe)
 NPDir=0 NMtPBC=     1 NCelOv=     1 NCel=       1 NClECP=     1 NCelD=      1
         NCelK=      1 NCelE2=     1 NClLst=     1 CellRange=     0.0.
 One-electron integrals computed using PRISM.
 One-electron integral symmetry used in STVInt
 NBasis=   409 RedAO= T EigKep=  2.72D-04  NBF=   409
 NBsUse=   409 1.00D-06 EigRej= -1.00D+00 NBFU=   409
 Precomputing XC quadrature grid using
 IXCGrd= 4 IRadAn=           5 IRanWt=          -1 IRanGd=           0 AccXCQ= 0.00D+00.
 Generated NRdTot=       0 NPtTot=           0 NUsed=           0 NTot=          32
 NSgBfM=   401   401   401   401   401 MxSgAt=    42 MxSgA2=    42.
 Leave Link  302 at Fri Jun  5 16:57:04 2026, MaxMem=  1258291200 cpu:               2.6 elap:               0.5
 (Enter /apl/gaussian/16c02/g16/l303.exe)
 DipDrv:  MaxL=1.
 Leave Link  303 at Fri Jun  5 16:57:04 2026, MaxMem=  1258291200 cpu:               0.1 elap:               0.1
 (Enter /apl/gaussian/16c02/g16/l401.exe)
 ExpMin= 1.61D-01 ExpMax= 4.17D+03 ExpMxC= 6.27D+02 IAcc=3 IRadAn=         5 AccDes= 0.00D+00
 Harris functional with IExCor=  402 and IRadAn=       5 diagonalized for initial guess.
 HarFok:  IExCor=  402 AccDes= 0.00D+00 IRadAn=         5 IDoV= 1 UseB2=F ITyADJ=14
 ICtDFT=  3500011 ScaDFX=  1.000000  1.000000  1.000000  1.000000
 FoFCou: FMM=F IPFlag=           0 FMFlag=      100000 FMFlg1=           0
         NFxFlg=           0 DoJE=T BraDBF=F KetDBF=T FulRan=T
         wScrn=  0.000000 ICntrl=       500 IOpCl=  0 I1Cent=   200000004 NGrid=           0
         NMat0=    1 NMatS0=      1 NMatT0=    0 NMatD0=    1 NMtDS0=    0 NMtDT0=    0
 Petite list used in FoFCou.
 Harris En= -979.578463522123    
 JPrj=0 DoOrth=F DoCkMO=F.
 Leave Link  401 at Fri Jun  5 16:57:06 2026, MaxMem=  1258291200 cpu:              13.6 elap:               1.8
 (Enter /apl/gaussian/16c02/g16/l502.exe)
 Integral symmetry usage will be decided dynamically.
 Closed shell SCF:
 Using DIIS extrapolation, IDIIS=  1040.
 NGot=  1258291200 LenX=  1257948019 LenY=  1257780297
 Requested convergence on RMS density matrix=1.00D-08 within 128 cycles.
 Requested convergence on MAX density matrix=1.00D-06.
 Requested convergence on             energy=1.00D-06.
 No special actions if energy rises.
 Fock matrices will be formed incrementally for  20 cycles.
 Integral accuracy reduced to 1.0D-05 until final iterations.

 Cycle   1  Pass 0  IDiag  1:
 FoFJK:  IHMeth= 1 ICntrl=       0 DoSepK=F KAlg= 0 I1Cent=           0 FoldK=F
 IRaf= 680000000 NMat=       1 IRICut=       1 DoRegI=T DoRafI=F ISym2E= 0 IDoP0=0 IntGTp=1.
 FoFCou: FMM=F IPFlag=           0 FMFlag=      100000 FMFlg1=           0
         NFxFlg=           0 DoJE=F BraDBF=F KetDBF=F FulRan=T
         wScrn=  0.000000 ICntrl=         0 IOpCl=  0 I1Cent=           0 NGrid=           0
         NMat0=    1 NMatS0=      1 NMatT0=    0 NMatD0=    1 NMtDS0=    0 NMtDT0=    0
 Symmetry not used in FoFCou.
 E= -979.048191487710    
 DIIS: error= 4.46D-02 at cycle   1 NSaved=   1.
 NSaved= 1 IEnMin= 1 EnMin= -979.048191487710     IErMin= 1 ErrMin= 4.46D-02
 ErrMax= 4.46D-02  0.00D+00 EMaxC= 1.00D-01 BMatC= 4.77D-01 BMatP= 4.77D-01
 IDIUse=3 WtCom= 5.54D-01 WtEn= 4.46D-01
 Coeff-Com:  0.100D+01
 Coeff-En:   0.100D+01
 Coeff:      0.100D+01
 Gap=     0.219 Goal=   None    Shift=    0.000
 GapD=    0.219 DampG=1.000 DampE=0.500 DampFc=0.5000 IDamp=-1.
 Damping current iteration by 5.00D-01
 RMSDP=4.34D-03 MaxDP=1.21D-01              OVMax= 2.40D-01

 Cycle   2  Pass 0  IDiag  1:
 RMSU=  2.10D-03    CP:  9.67D-01
 E= -979.273916754601     Delta-E=       -0.225725266891 Rises=F Damp=T
 DIIS: error= 1.39D-02 at cycle   2 NSaved=   2.
 NSaved= 2 IEnMin= 2 EnMin= -979.273916754601     IErMin= 2 ErrMin= 1.39D-02
 ErrMax= 1.39D-02  0.00D+00 EMaxC= 1.00D-01 BMatC= 4.69D-02 BMatP= 4.77D-01
 IDIUse=3 WtCom= 8.61D-01 WtEn= 1.39D-01
 Coeff-Com:  0.614D-01 0.939D+00
 Coeff-En:   0.103D+00 0.897D+00
 Coeff:      0.671D-01 0.933D+00
 Gap=     0.205 Goal=   None    Shift=    0.000
 RMSDP=1.66D-03 MaxDP=1.13D-01 DE=-2.26D-01 OVMax= 2.79D-01

 Cycle   3  Pass 0  IDiag  1:
 RMSU=  1.59D-03    CP:  9.47D-01  8.54D-01
 E= -979.479244835639     Delta-E=       -0.205328081038 Rises=F Damp=F
 DIIS: error= 2.18D-02 at cycle   3 NSaved=   3.
 NSaved= 3 IEnMin= 3 EnMin= -979.479244835639     IErMin= 2 ErrMin= 1.39D-02
 ErrMax= 2.18D-02  0.00D+00 EMaxC= 1.00D-01 BMatC= 8.53D-02 BMatP= 4.69D-02
 IDIUse=2 WtCom= 0.00D+00 WtEn= 1.00D+00
 Coeff-En:   0.000D+00 0.000D+00 0.100D+01
 Coeff:      0.000D+00 0.000D+00 0.100D+01
 Gap=     0.241 Goal=   None    Shift=    0.000
 RMSDP=2.79D-03 MaxDP=1.77D-01 DE=-2.05D-01 OVMax= 2.21D-01

 Cycle   4  Pass 0  IDiag  1:
 RMSU=  1.55D-03    CP:  9.50D-01  1.36D+00 -2.98D-01
 E= -979.031078135280     Delta-E=        0.448166700359 Rises=F Damp=F
 DIIS: error= 6.32D-02 at cycle   4 NSaved=   4.
 NSaved= 4 IEnMin= 3 EnMin= -979.479244835639     IErMin= 2 ErrMin= 1.39D-02
 ErrMax= 6.32D-02  0.00D+00 EMaxC= 1.00D-01 BMatC= 5.02D-01 BMatP= 4.69D-02
 IDIUse=2 WtCom= 0.00D+00 WtEn= 1.00D+00
 Coeff-En:   0.000D+00 0.000D+00 0.793D+00 0.207D+00
 Coeff:      0.000D+00 0.000D+00 0.793D+00 0.207D+00
 Gap=     0.183 Goal=   None    Shift=    0.000
 RMSDP=1.44D-03 MaxDP=8.20D-02 DE= 4.48D-01 OVMax= 1.76D-01

 Cycle   5  Pass 0  IDiag  1:
 RMSU=  2.75D-04    CP:  9.49D-01  1.09D+00  3.46D-01  4.91D-01
 E= -979.528193322910     Delta-E=       -0.497115187630 Rises=F Damp=F
 DIIS: error= 1.84D-02 at cycle   5 NSaved=   5.
 NSaved= 5 IEnMin= 5 EnMin= -979.528193322910     IErMin= 2 ErrMin= 1.39D-02
 ErrMax= 1.84D-02  0.00D+00 EMaxC= 1.00D-01 BMatC= 4.16D-02 BMatP= 4.69D-02
 IDIUse=3 WtCom= 8.16D-01 WtEn= 1.84D-01
 Coeff-Com:  0.243D-02 0.101D-01 0.324D+00-0.855D-01 0.749D+00
 Coeff-En:   0.000D+00 0.000D+00 0.369D+00 0.000D+00 0.631D+00
 Coeff:      0.198D-02 0.826D-02 0.332D+00-0.697D-01 0.727D+00
 Gap=     0.172 Goal=   None    Shift=    0.000
 RMSDP=5.97D-04 MaxDP=4.28D-02 DE=-4.97D-01 OVMax= 7.79D-02

 Cycle   6  Pass 0  IDiag  1:
 RMSU=  9.51D-05    CP:  9.48D-01  9.86D-01  6.17D-01  2.78D-01  7.67D-01
 E= -979.572332209036     Delta-E=       -0.044138886126 Rises=F Damp=F
 DIIS: error= 1.44D-03 at cycle   6 NSaved=   6.
 NSaved= 6 IEnMin= 6 EnMin= -979.572332209036     IErMin= 6 ErrMin= 1.44D-03
 ErrMax= 1.44D-03  0.00D+00 EMaxC= 1.00D-01 BMatC= 3.81D-04 BMatP= 4.16D-02
 IDIUse=3 WtCom= 9.86D-01 WtEn= 1.44D-02
 Coeff-Com: -0.147D-02 0.757D-02 0.141D+00-0.711D-01 0.448D+00 0.476D+00
 Coeff-En:   0.000D+00 0.000D+00 0.000D+00 0.000D+00 0.000D+00 0.100D+01
 Coeff:     -0.145D-02 0.746D-02 0.139D+00-0.700D-01 0.442D+00 0.483D+00
 Gap=     0.168 Goal=   None    Shift=    0.000
 RMSDP=5.96D-05 MaxDP=4.24D-03 DE=-4.41D-02 OVMax= 5.95D-03

 Cycle   7  Pass 0  IDiag  1:
 RMSU=  2.21D-05    CP:  9.48D-01  9.90D-01  6.13D-01  2.82D-01  8.38D-01
                    CP:  4.69D-01
 E= -979.572690966214     Delta-E=       -0.000358757178 Rises=F Damp=F
 DIIS: error= 4.36D-04 at cycle   7 NSaved=   7.
 NSaved= 7 IEnMin= 7 EnMin= -979.572690966214     IErMin= 7 ErrMin= 4.36D-04
 ErrMax= 4.36D-04  0.00D+00 EMaxC= 1.00D-01 BMatC= 2.00D-05 BMatP= 3.81D-04
 IDIUse=3 WtCom= 9.96D-01 WtEn= 4.36D-03
 Coeff-Com: -0.327D-03 0.124D-02 0.534D-01-0.274D-01 0.169D+00 0.253D+00
 Coeff-Com:  0.551D+00
 Coeff-En:   0.000D+00 0.000D+00 0.000D+00 0.000D+00 0.000D+00 0.000D+00
 Coeff-En:   0.100D+01
 Coeff:     -0.326D-03 0.123D-02 0.532D-01-0.272D-01 0.169D+00 0.252D+00
 Coeff:      0.553D+00
 Gap=     0.168 Goal=   None    Shift=    0.000
 RMSDP=1.52D-05 MaxDP=7.73D-04 DE=-3.59D-04 OVMax= 1.90D-03

 Cycle   8  Pass 0  IDiag  1:
 RMSU=  9.10D-06    CP:  9.48D-01  9.89D-01  6.14D-01  2.81D-01  8.30D-01
                    CP:  5.48D-01  5.98D-01
 E= -979.572708918431     Delta-E=       -0.000017952217 Rises=F Damp=F
 DIIS: error= 1.46D-04 at cycle   8 NSaved=   8.
 NSaved= 8 IEnMin= 8 EnMin= -979.572708918431     IErMin= 8 ErrMin= 1.46D-04
 ErrMax= 1.46D-04  0.00D+00 EMaxC= 1.00D-01 BMatC= 3.96D-06 BMatP= 2.00D-05
 IDIUse=3 WtCom= 9.99D-01 WtEn= 1.46D-03
 Coeff-Com:  0.167D-03-0.964D-03 0.553D-02-0.249D-02 0.138D-01 0.707D-01
 Coeff-Com:  0.367D+00 0.547D+00
 Coeff-En:   0.000D+00 0.000D+00 0.000D+00 0.000D+00 0.000D+00 0.000D+00
 Coeff-En:   0.125D+00 0.875D+00
 Coeff:      0.167D-03-0.962D-03 0.552D-02-0.249D-02 0.138D-01 0.706D-01
 Coeff:      0.366D+00 0.547D+00
 Gap=     0.167 Goal=   None    Shift=    0.000
 RMSDP=5.40D-06 MaxDP=3.21D-04 DE=-1.80D-05 OVMax= 4.94D-04

 Initial convergence to 1.0D-05 achieved.  Increase integral accuracy.
 Cycle   9  Pass 1  IDiag  1:
 E= -979.572725755365     Delta-E=       -0.000016836934 Rises=F Damp=F
 DIIS: error= 8.95D-05 at cycle   1 NSaved=   1.
 NSaved= 1 IEnMin= 1 EnMin= -979.572725755365     IErMin= 1 ErrMin= 8.95D-05
 ErrMax= 8.95D-05  0.00D+00 EMaxC= 1.00D-01 BMatC= 1.39D-06 BMatP= 1.39D-06
 IDIUse=1 WtCom= 1.00D+00 WtEn= 0.00D+00
 Coeff-Com:  0.100D+01
 Coeff:      0.100D+01
 Gap=     0.167 Goal=   None    Shift=    0.000
 RMSDP=5.40D-06 MaxDP=3.21D-04 DE=-1.68D-05 OVMax= 3.22D-04

 Cycle  10  Pass 1  IDiag  1:
 RMSU=  5.27D-05    CP:  1.00D+00
 E= -979.572726726554     Delta-E=       -0.000000971188 Rises=F Damp=F
 DIIS: error= 4.10D-05 at cycle   2 NSaved=   2.
 NSaved= 2 IEnMin= 2 EnMin= -979.572726726554     IErMin= 2 ErrMin= 4.10D-05
 ErrMax= 4.10D-05  0.00D+00 EMaxC= 1.00D-01 BMatC= 3.51D-07 BMatP= 1.39D-06
 IDIUse=1 WtCom= 1.00D+00 WtEn= 0.00D+00
 Coeff-Com:  0.252D+00 0.748D+00
 Coeff:      0.252D+00 0.748D+00
 Gap=     0.167 Goal=   None    Shift=    0.000
 RMSDP=3.84D-06 MaxDP=1.34D-04 DE=-9.71D-07 OVMax= 4.67D-04

 Cycle  11  Pass 1  IDiag  1:
 RMSU=  3.82D-06    CP:  1.00D+00  1.01D+00
 E= -979.572726496404     Delta-E=        0.000000230150 Rises=F Damp=F
 DIIS: error= 5.88D-05 at cycle   3 NSaved=   3.
 NSaved= 3 IEnMin= 2 EnMin= -979.572726726554     IErMin= 2 ErrMin= 4.10D-05
 ErrMax= 5.88D-05  0.00D+00 EMaxC= 1.00D-01 BMatC= 5.42D-07 BMatP= 3.51D-07
 IDIUse=1 WtCom= 1.00D+00 WtEn= 0.00D+00
 Coeff-Com:  0.776D-02 0.552D+00 0.440D+00
 Coeff:      0.776D-02 0.552D+00 0.440D+00
 Gap=     0.167 Goal=   None    Shift=    0.000
 RMSDP=2.29D-06 MaxDP=7.57D-05 DE= 2.30D-07 OVMax= 2.96D-04

 Cycle  12  Pass 1  IDiag  1:
 RMSU=  6.66D-07    CP:  1.00D+00  1.01D+00  4.31D-01
 E= -979.572727105996     Delta-E=       -0.000000609592 Rises=F Damp=F
 DIIS: error= 9.15D-06 at cycle   4 NSaved=   4.
 NSaved= 4 IEnMin= 4 EnMin= -979.572727105996     IErMin= 4 ErrMin= 9.15D-06
 ErrMax= 9.15D-06  0.00D+00 EMaxC= 1.00D-01 BMatC= 2.12D-08 BMatP= 3.51D-07
 IDIUse=1 WtCom= 1.00D+00 WtEn= 0.00D+00
 Coeff-Com: -0.349D-02 0.338D+00 0.288D+00 0.377D+00
 Coeff:     -0.349D-02 0.338D+00 0.288D+00 0.377D+00
 Gap=     0.167 Goal=   None    Shift=    0.000
 RMSDP=4.34D-07 MaxDP=2.07D-05 DE=-6.10D-07 OVMax= 4.54D-05

 Cycle  13  Pass 1  IDiag  1:
 RMSU=  1.44D-07    CP:  1.00D+00  1.01D+00  4.56D-01  4.02D-01
 E= -979.572727127308     Delta-E=       -0.000000021312 Rises=F Damp=F
 DIIS: error= 1.75D-06 at cycle   5 NSaved=   5.
 NSaved= 5 IEnMin= 5 EnMin= -979.572727127308     IErMin= 5 ErrMin= 1.75D-06
 ErrMax= 1.75D-06  0.00D+00 EMaxC= 1.00D-01 BMatC= 5.63D-10 BMatP= 2.12D-08
 IDIUse=1 WtCom= 1.00D+00 WtEn= 0.00D+00
 Coeff-Com: -0.246D-02 0.196D+00 0.168D+00 0.236D+00 0.402D+00
 Coeff:     -0.246D-02 0.196D+00 0.168D+00 0.236D+00 0.402D+00
 Gap=     0.167 Goal=   None    Shift=    0.000
 RMSDP=7.51D-08 MaxDP=4.35D-06 DE=-2.13D-08 OVMax= 7.44D-06

 Cycle  14  Pass 1  IDiag  1:
 RMSU=  5.16D-08    CP:  1.00D+00  1.01D+00  4.54D-01  4.20D-01  6.35D-01
 E= -979.572727127859     Delta-E=       -0.000000000552 Rises=F Damp=F
 DIIS: error= 3.68D-07 at cycle   6 NSaved=   6.
 NSaved= 6 IEnMin= 6 EnMin= -979.572727127859     IErMin= 6 ErrMin= 3.68D-07
 ErrMax= 3.68D-07  0.00D+00 EMaxC= 1.00D-01 BMatC= 2.34D-11 BMatP= 5.63D-10
 IDIUse=1 WtCom= 1.00D+00 WtEn= 0.00D+00
 Coeff-Com: -0.984D-03 0.728D-01 0.630D-01 0.901D-01 0.214D+00 0.561D+00
 Coeff:     -0.984D-03 0.728D-01 0.630D-01 0.901D-01 0.214D+00 0.561D+00
 Gap=     0.167 Goal=   None    Shift=    0.000
 RMSDP=1.91D-08 MaxDP=7.36D-07 DE=-5.52D-10 OVMax= 1.84D-06

 Cycle  15  Pass 1  IDiag  1:
 RMSU=  1.46D-08    CP:  1.00D+00  1.01D+00  4.55D-01  4.17D-01  6.65D-01
                    CP:  7.82D-01
 E= -979.572727127906     Delta-E=       -0.000000000047 Rises=F Damp=F
 DIIS: error= 1.94D-07 at cycle   7 NSaved=   7.
 NSaved= 7 IEnMin= 7 EnMin= -979.572727127906     IErMin= 7 ErrMin= 1.94D-07
 ErrMax= 1.94D-07  0.00D+00 EMaxC= 1.00D-01 BMatC= 4.66D-12 BMatP= 2.34D-11
 IDIUse=1 WtCom= 1.00D+00 WtEn= 0.00D+00
 Coeff-Com: -0.321D-03 0.223D-01 0.194D-01 0.279D-01 0.829D-01 0.351D+00
 Coeff-Com:  0.496D+00
 Coeff:     -0.321D-03 0.223D-01 0.194D-01 0.279D-01 0.829D-01 0.351D+00
 Coeff:      0.496D+00
 Gap=     0.167 Goal=   None    Shift=    0.000
 RMSDP=6.83D-09 MaxDP=3.36D-07 DE=-4.68D-11 OVMax= 7.68D-07

 SCF Done:  E(RB3LYP) =  -979.572727128     A.U. after   15 cycles
            NFock= 15  Conv=0.68D-08     -V/T= 2.0098
 KE= 9.700937953251D+02 PE=-6.015500726483D+03 EE= 2.192226626818D+03
 Leave Link  502 at Fri Jun  5 16:57:45 2026, MaxMem=  1258291200 cpu:             288.6 elap:              39.1
 (Enter /apl/gaussian/16c02/g16/l601.exe)
 Copying SCF densities to generalized density rwf, IOpCl= 0 IROHF=0.

 **********************************************************************

            Population analysis using the SCF Density.

 **********************************************************************

 Orbital symmetries:
       Occupied  (A) (A) (A) (A) (A) (A) (A) (A) (A) (A) (A) (A)
                 (A) (A) (A) (A) (A) (A) (A) (A) (A) (A) (A) (A)
                 (A) (A) (A) (A) (A) (A) (A) (A) (A) (A) (A) (A)
                 (A) (A) (A) (A) (A) (A) (A) (A) (A) (A) (A) (A)
                 (A) (A) (A) (A) (A) (A) (A) (A) (A) (A) (A) (A)
                 (A) (A) (A) (A) (A) (A) (A) (A) (A) (A) (A) (A)
                 (A) (A) (A) (A) (A) (A) (A) (A) (A) (A) (A) (A)
       Virtual   (A) (A) (A) (A) (A) (A) (A) (A) (A) (A) (A) (A)
                 (A) (A) (A) (A) (A) (A) (A) (A) (A) (A) (A) (A)
                 (A) (A) (A) (A) (A) (A) (A) (A) (A) (A) (A) (A)
                 (A) (A) (A) (A) (A) (A) (A) (A) (A) (A) (A) (A)
                 (A) (A) (A) (A) (A) (A) (A) (A) (A) (A) (A) (A)
                 (A) (A) (A) (A) (A) (A) (A) (A) (A) (A) (A) (A)
                 (A) (A) (A) (A) (A) (A) (A) (A) (A) (A) (A) (A)
                 (A) (A) (A) (A) (A) (A) (A) (A) (A) (A) (A) (A)
                 (A) (A) (A) (A) (A) (A) (A) (A) (A) (A) (A) (A)
                 (A) (A) (A) (A) (A) (A) (A) (A) (A) (A) (A) (A)
                 (A) (A) (A) (A) (A) (A) (A) (A) (A) (A) (A) (A)
                 (A) (A) (A) (A) (A) (A) (A) (A) (A) (A) (A) (A)
                 (A) (A) (A) (A) (A) (A) (A) (A) (A) (A) (A) (A)
                 (A) (A) (A) (A) (A) (A) (A) (A) (A) (A) (A) (A)
                 (A) (A) (A) (A) (A) (A) (A) (A) (A) (A) (A) (A)
                 (A) (A) (A) (A) (A) (A) (A) (A) (A) (A) (A) (A)
                 (A) (A) (A) (A) (A) (A) (A) (A) (A) (A) (A) (A)
                 (A) (A) (A) (A) (A) (A) (A) (A) (A) (A) (A) (A)
                 (A) (A) (A) (A) (A) (A) (A) (A) (A) (A) (A) (A)
                 (A) (A) (A) (A) (A) (A) (A) (A) (A) (A) (A) (A)
                 (A) (A) (A) (A) (A) (A) (A) (A) (A) (A) (A) (A)
                 (A) (A) (A) (A) (A) (A) (A) (A) (A) (A) (A) (A)
                 (A) (A) (A) (A) (A) (A) (A) (A) (A) (A) (A) (A)
                 (A) (A) (A) (A) (A) (A) (A) (A) (A) (A) (A) (A)
                 (A) (A) (A) (A) (A) (A) (A) (A) (A) (A) (A) (A)
                 (A) (A) (A) (A) (A) (A) (A) (A) (A) (A) (A) (A)
                 (A) (A) (A) (A) (A) (A) (A) (A) (A) (A) (A) (A)
                 (A)
 The electronic state is 1-A.
 Alpha  occ. eigenvalues --  -14.38408 -10.23973 -10.22341 -10.22341 -10.20300
 Alpha  occ. eigenvalues --  -10.20100 -10.19933 -10.19930 -10.19871 -10.19871
 Alpha  occ. eigenvalues --  -10.19254 -10.19253 -10.19203 -10.19193 -10.19083
 Alpha  occ. eigenvalues --  -10.18956 -10.18956 -10.18809 -10.18809 -10.18634
 Alpha  occ. eigenvalues --  -10.18634 -10.18422 -10.18378 -10.18010 -10.18009
 Alpha  occ. eigenvalues --   -0.99192  -0.87528  -0.85690  -0.84196  -0.83713
 Alpha  occ. eigenvalues --   -0.79302  -0.76769  -0.75705  -0.74552  -0.74236
 Alpha  occ. eigenvalues --   -0.73584  -0.71599  -0.70700  -0.64871  -0.62624
 Alpha  occ. eigenvalues --   -0.62227  -0.60480  -0.59551  -0.59245  -0.57356
 Alpha  occ. eigenvalues --   -0.57241  -0.53638  -0.52458  -0.51467  -0.50269
 Alpha  occ. eigenvalues --   -0.47995  -0.47366  -0.46021  -0.45508  -0.44959
 Alpha  occ. eigenvalues --   -0.44614  -0.44252  -0.43334  -0.43071  -0.42426
 Alpha  occ. eigenvalues --   -0.42067  -0.41980  -0.41505  -0.41425  -0.38700
 Alpha  occ. eigenvalues --   -0.37754  -0.36735  -0.36161  -0.36087  -0.35742
 Alpha  occ. eigenvalues --   -0.35029  -0.34365  -0.34198  -0.33678  -0.33399
 Alpha  occ. eigenvalues --   -0.32414  -0.27982  -0.26886  -0.25909  -0.25147
 Alpha  occ. eigenvalues --   -0.24751  -0.23721  -0.21301  -0.19490
 Alpha virt. eigenvalues --   -0.02746  -0.02740  -0.01394  -0.00254   0.00639
 Alpha virt. eigenvalues --    0.01124   0.04033   0.04673   0.09290   0.09549
 Alpha virt. eigenvalues --    0.10524   0.10588   0.12804   0.13280   0.13630
 Alpha virt. eigenvalues --    0.14669   0.15421   0.15807   0.15919   0.16236
 Alpha virt. eigenvalues --    0.16746   0.16956   0.18087   0.18563   0.18598
 Alpha virt. eigenvalues --    0.18959   0.20096   0.20262   0.20460   0.21269
 Alpha virt. eigenvalues --    0.22730   0.25185   0.25766   0.26924   0.27777
 Alpha virt. eigenvalues --    0.27849   0.29334   0.30224   0.30769   0.31134
 Alpha virt. eigenvalues --    0.31426   0.31985   0.34253   0.34266   0.36712
 Alpha virt. eigenvalues --    0.37040   0.37086   0.38956   0.39559   0.43109
 Alpha virt. eigenvalues --    0.46076   0.46785   0.49412   0.49860   0.50027
 Alpha virt. eigenvalues --    0.51555   0.52680   0.52927   0.53485   0.53910
 Alpha virt. eigenvalues --    0.54053   0.54117   0.54757   0.54793   0.55240
 Alpha virt. eigenvalues --    0.55885   0.56173   0.56793   0.56919   0.57485
 Alpha virt. eigenvalues --    0.58037   0.58102   0.58763   0.58829   0.59588
 Alpha virt. eigenvalues --    0.59848   0.60115   0.60767   0.60970   0.61134
 Alpha virt. eigenvalues --    0.61220   0.61396   0.61479   0.62171   0.62245
 Alpha virt. eigenvalues --    0.62522   0.63102   0.63619   0.63633   0.64392
 Alpha virt. eigenvalues --    0.64581   0.65008   0.65747   0.67112   0.67311
 Alpha virt. eigenvalues --    0.69690   0.69896   0.70907   0.74417   0.74912
 Alpha virt. eigenvalues --    0.75190   0.77809   0.79218   0.79685   0.81326
 Alpha virt. eigenvalues --    0.81352   0.82419   0.82442   0.82598   0.83510
 Alpha virt. eigenvalues --    0.83803   0.84147   0.84394   0.85434   0.85991
 Alpha virt. eigenvalues --    0.86222   0.86436   0.86906   0.86933   0.87607
 Alpha virt. eigenvalues --    0.89211   0.89371   0.90532   0.91298   0.91539
 Alpha virt. eigenvalues --    0.91695   0.93276   0.95116   0.95182   0.96395
 Alpha virt. eigenvalues --    0.98213   0.98807   0.99202   1.00443   1.00776
 Alpha virt. eigenvalues --    1.00932   1.01712   1.02002   1.02916   1.07409
 Alpha virt. eigenvalues --    1.08266   1.08416   1.10083   1.11422   1.12844
 Alpha virt. eigenvalues --    1.12858   1.14757   1.14866   1.16311   1.17374
 Alpha virt. eigenvalues --    1.17451   1.19267   1.19612   1.21369   1.21619
 Alpha virt. eigenvalues --    1.21657   1.22657   1.25734   1.28004   1.28325
 Alpha virt. eigenvalues --    1.29338   1.32998   1.33019   1.34512   1.35240
 Alpha virt. eigenvalues --    1.39048   1.39823   1.41140   1.41727   1.43038
 Alpha virt. eigenvalues --    1.44451   1.44653   1.44797   1.45404   1.46441
 Alpha virt. eigenvalues --    1.47034   1.47724   1.48436   1.48841   1.49134
 Alpha virt. eigenvalues --    1.49366   1.50254   1.50794   1.51127   1.51163
 Alpha virt. eigenvalues --    1.51413   1.58115   1.60481   1.62073   1.65449
 Alpha virt. eigenvalues --    1.68402   1.71587   1.71700   1.75733   1.77859
 Alpha virt. eigenvalues --    1.77945   1.78898   1.79453   1.79845   1.81053
 Alpha virt. eigenvalues --    1.82081   1.82302   1.82527   1.85445   1.85844
 Alpha virt. eigenvalues --    1.87452   1.89054   1.90722   1.91652   1.91940
 Alpha virt. eigenvalues --    1.92494   1.92509   1.93256   1.95526   1.96457
 Alpha virt. eigenvalues --    1.97325   1.97460   1.99229   1.99313   2.03427
 Alpha virt. eigenvalues --    2.05158   2.05443   2.06014   2.07167   2.07372
 Alpha virt. eigenvalues --    2.08694   2.10176   2.11118   2.12014   2.12476
 Alpha virt. eigenvalues --    2.13023   2.14879   2.15388   2.15722   2.16304
 Alpha virt. eigenvalues --    2.19580   2.20353   2.21891   2.22623   2.23042
 Alpha virt. eigenvalues --    2.23690   2.26499   2.26678   2.26815   2.28467
 Alpha virt. eigenvalues --    2.28830   2.30549   2.30603   2.30922   2.31558
 Alpha virt. eigenvalues --    2.32053   2.34464   2.37567   2.38774   2.38981
 Alpha virt. eigenvalues --    2.40766   2.46267   2.48791   2.52899   2.53632
 Alpha virt. eigenvalues --    2.54315   2.55784   2.57585   2.59183   2.61171
 Alpha virt. eigenvalues --    2.61450   2.62930   2.64558   2.66076   2.66952
 Alpha virt. eigenvalues --    2.66984   2.68157   2.68517   2.70077   2.71242
 Alpha virt. eigenvalues --    2.72157   2.72269   2.73427   2.73810   2.74869
 Alpha virt. eigenvalues --    2.76876   2.77178   2.81385   2.82856   2.83194
 Alpha virt. eigenvalues --    2.86817   2.87134   2.89701   2.93974   2.97632
 Alpha virt. eigenvalues --    2.99118   2.99386   3.11242   3.19341   3.19905
 Alpha virt. eigenvalues --    3.35321   3.37084   3.40868   3.46757   3.52206
 Alpha virt. eigenvalues --    4.08478   4.08982   4.09860   4.10407   4.10561
 Alpha virt. eigenvalues --    4.11288   4.12070   4.14400   4.14482   4.16098
 Alpha virt. eigenvalues --    4.19030   4.19863   4.28974   4.33144   4.34755
 Alpha virt. eigenvalues --    4.34766   4.37273   4.41064   4.44278   4.45815
 Alpha virt. eigenvalues --    4.49970   4.67326   4.73397   4.79644   4.86269
          Condensed to atoms (all electrons):
               1          2          3          4          5          6
     1  C    4.846806   0.551645  -0.037090  -0.032842   0.000687   0.000012
     2  C    0.551645   4.873881   0.513994  -0.017100   0.005992   0.000233
     3  C   -0.037090   0.513994   4.976733   0.530539  -0.050358  -0.007461
     4  C   -0.032842  -0.017100   0.530539   4.777031   0.340882  -0.049802
     5  C    0.000687   0.005992  -0.050358   0.340882   4.775782   0.528909
     6  C    0.000012   0.000233  -0.007461  -0.049802   0.528909   4.993002
     7  C   -0.000000   0.000003   0.000276   0.006106  -0.025533   0.482172
     8  C    0.000000  -0.000000   0.000008   0.000592  -0.026035  -0.018639
     9  N   -0.000000   0.000000   0.000000  -0.000001   0.000329   0.004885
    10  C    0.000000  -0.000000  -0.000000  -0.000000   0.000008   0.000194
    11  C   -0.000000  -0.000000   0.000000   0.000000  -0.000007  -0.000142
    12  C   -0.000000   0.000000  -0.000000  -0.000000  -0.000000  -0.000003
    13  C    0.000000   0.000000  -0.000000  -0.000000   0.000000   0.000000
    14  C    0.000000  -0.000000   0.000000   0.000000   0.000000  -0.000000
    15  C   -0.000000   0.000000   0.000000   0.000000  -0.000000  -0.000001
    16  C   -0.000000  -0.000000  -0.000000   0.000000  -0.000000   0.000002
    17  C    0.000000   0.000000  -0.000000   0.000000   0.000000  -0.000000
    18  C    0.000000   0.000000   0.000000  -0.000000   0.000000   0.000000
    19  C   -0.000000  -0.000000   0.000000  -0.000000  -0.000000  -0.000000
    20  C   -0.000000  -0.000000  -0.000000   0.000000  -0.000007  -0.000009
    21  C    0.000000   0.000000  -0.000000  -0.000000   0.000008  -0.000072
    22  C   -0.000000   0.000002  -0.000161   0.006106  -0.025533  -0.044343
    23  C    0.000012  -0.000152   0.003389  -0.049802   0.528909  -0.038992
    24  C   -0.037090  -0.045024  -0.046955   0.530540  -0.050358   0.003389
    25  C    0.551646  -0.027348  -0.045025  -0.017100   0.005992  -0.000152
    26  H    0.358554  -0.043493   0.004891   0.000620   0.000004   0.000000
    27  H   -0.043062   0.357193  -0.038757   0.003529  -0.000181  -0.000005
    28  H    0.004846  -0.043989   0.353737  -0.044667  -0.006756   0.003943
    29  H   -0.000005  -0.000128   0.004243  -0.006432  -0.041464   0.351675
    30  H    0.000000  -0.000000  -0.000005  -0.000163   0.003308  -0.034881
    31  H   -0.000000   0.000000  -0.000000  -0.000000  -0.000023   0.000519
    32  H   -0.000000   0.000000   0.000000   0.000000  -0.000000  -0.000000
    33  H    0.000000  -0.000000  -0.000000  -0.000000   0.000000   0.000000
    34  H    0.000000   0.000000   0.000000  -0.000000  -0.000000   0.000000
    35  H    0.000000  -0.000000   0.000000  -0.000000  -0.000000   0.000000
    36  H    0.000000  -0.000000   0.000000  -0.000000   0.000000  -0.000000
    37  H   -0.000000  -0.000000   0.000000   0.000000  -0.000000   0.000000
    38  H   -0.000000  -0.000000   0.000000  -0.000000  -0.000023  -0.000017
    39  H    0.000000  -0.000000   0.000001  -0.000163   0.003308   0.000521
    40  H   -0.000005  -0.000017   0.000207  -0.006431  -0.041464   0.006004
    41  H    0.004846   0.000344   0.005979  -0.044667  -0.006756   0.000238
    42  H   -0.043062   0.004611   0.000813   0.003529  -0.000181   0.000001
               7          8          9         10         11         12
     1  C   -0.000000   0.000000  -0.000000   0.000000  -0.000000  -0.000000
     2  C    0.000003  -0.000000   0.000000  -0.000000  -0.000000   0.000000
     3  C    0.000276   0.000008   0.000000  -0.000000   0.000000  -0.000000
     4  C    0.006106   0.000592  -0.000001  -0.000000   0.000000  -0.000000
     5  C   -0.025533  -0.026035   0.000329   0.000008  -0.000007  -0.000000
     6  C    0.482172  -0.018639   0.004885   0.000194  -0.000142  -0.000003
     7  C    5.022819   0.530086  -0.053746  -0.005653  -0.002608   0.000117
     8  C    0.530086   4.586645   0.247651  -0.037952  -0.002420   0.000109
[...]
 .00003211,0.00003746,-0.00003092,0.00004625,0.00002908,0.00009888,0.00
 012010,0.00003047,-0.00054976,0.00006712,-0.00000859,-0.00026548,0.002
 88217,0.00468995,0.00013046,0.00034644,0.00002602,-0.00011682,0.002269
 53,0.00653202,0.00421299,-0.00151381,0.00252811,-0.04866059,0.01705659
 ,-0.04325531,-0.00954133,0.00122684,0.00137203,-0.00010197,-0.00000644
 ,0.00043667,-0.00024515,0.00006579,-0.00001921,-0.00001474,0.00000446,
 0.00001214,-0.00000164,0.00000542,-0.00000417,-0.00000131,-0.00000141,
 -0.00000056,0.00000220,0.00000067,0.,0.00000120,0.00000329,-0.00000723
 ,0.00001036,0.00002465,0.00000338,-0.00000602,0.00002437,-0.00002058,0
 .00001017,0.00000926,-0.00003793,0.00000130,0.00000192,-0.00000647,0.0
 0000690,0.00000740,-0.00004703,-0.00000447,-0.00000481,0.00000936,0.00
 013702,-0.00044047,-0.00128749,0.00015999,0.00011469,0.00057142,0.0004
 5183,-0.00139114,-0.00380764,0.05374033,-0.01865102,0.03530816,-0.0000
 3138,-0.00000935,-0.00000838,-0.00001343,0.00010216,0.00007848,-0.0003
 9547,-0.00011023,-0.00020408,-0.00000518,-0.00038937,0.00142016,-0.004
 80574,-0.00058042,-0.00255273,-0.00058585,0.00020755,-0.00082454,-0.00
 090121,0.00007201,-0.00288164,0.01071865,0.00424242,-0.01194461,0.0016
 9366,0.00057364,0.00063406,-0.00016275,0.00027017,0.00000447,0.0000238
 4,-0.00002728,0.00000623,0.00000152,-0.00000673,-0.00000566,0.00000638
 ,-0.00003489,0.00001517,-0.00003682,0.00003567,-0.00001544,0.00010575,
 -0.00001298,-0.00003310,0.00003013,0.00008222,0.00005185,-0.00002263,-
 0.00005545,0.00002027,-0.00004102,-0.00000092,0.00001389,-0.00009702,0
 .00001664,-0.00009859,0.00003997,-0.00076569,-0.00025872,-0.00031379,-
 0.00035001,-0.00016400,-0.14770755,-0.04812521,0.12276196,-0.01258176,
 -0.00974221,0.02564363,-0.00005524,0.00010480,0.00004474,-0.00000103,0
 .00000798,-0.00002873,-0.00001091,-0.00000684,-0.00000257,-0.00005269,
 -0.00000111,0.00000244,0.00001950,-0.00001244,0.00002730,0.00004198,0.
 00009080,0.00015588,0.00054550,0.00026345,-0.00069899,-0.00000316,-0.0
 0001833,0.00000519,0.00000197,-0.00000872,0.00000295,0.00000212,-0.000
 00460,0.00000301,0.00000618,-0.00000044,-0.00000393,0.00001229,0.00000
 007,-0.00002022,-0.00000958,0.00001577,0.00001517,0.00001710,0.0000232
 2,-0.00000872,-0.00023447,-0.00001312,-0.00003208,0.15377901,0.0000059
 6,0.00000754,0.00001071,-0.00005186,0.00000507,-0.00003408,-0.00007607
 ,-0.00010834,0.00001318,-0.00006533,0.00025151,0.00008242,-0.00058139,
 0.00694931,0.00136849,0.00046408,-0.00025242,-0.00012123,0.00038110,0.
 00452263,0.00248577,-0.00561734,0.00197673,0.00477430,-0.00046132,-0.0
 0399580,-0.00227474,0.00050603,-0.00001851,0.00012545,0.00004448,0.000
 01472,-0.00004823,-0.00002087,-0.00005685,0.00000983,-0.00000699,0.000
 02313,-0.00000874,0.00003833,-0.00001358,0.00001563,0.00001830,-0.0000
 1273,0.00004335,-0.00027464,-0.00008906,0.00018425,0.00009992,0.000257
 13,-0.00006073,0.00020339,-0.00017809,0.00007171,-0.00022963,-0.000229
 72,0.00009198,-0.00003293,-0.00010084,0.00012324,0.00017925,0.00097602
 ,-0.00056654,-0.04686468,-0.06178777,0.07231443,-0.00102548,0.00173597
 ,0.00142136,-0.00003194,-0.00010053,0.00001026,-0.00001398,0.00002424,
 0.00000267,-0.00000187,-0.00001204,0.00000395,-0.00000551,0.00000943,-
 0.00000265,-0.00000508,-0.00002578,-0.00001900,0.00006008,-0.00090309,
 -0.00029093,-0.00033946,0.00041116,0.00038002,-0.00003210,-0.00000688,
 0.00001910,0.00000054,-0.00000396,0.00000460,-0.00000022,-0.00000590,0
 .00000105,0.00000130,-0.00000187,0.00000821,0.00000599,-0.00001565,-0.
 00001486,0.00002748,-0.00000376,-0.00000860,-0.00001886,-0.00000867,0.
 00000754,-0.00020025,-0.00049312,-0.00058490,0.05363815,0.05487366,0.0
 0001697,-0.00000183,-0.00000137,-0.00001166,0.00002384,0.00000413,-0.0
 0005590,-0.00001034,0.00002879,-0.00017796,-0.00008024,0.00019740,-0.0
 0167729,0.00149246,0.00171405,-0.00080533,-0.00032019,0.00005961,-0.00
 418300,0.00217222,-0.00294309,0.01849651,0.00832680,-0.01724800,0.0010
 4533,-0.00143119,0.00136887,-0.00024744,0.00010980,-0.00000438,0.00009
 061,0.00009340,0.00003667,0.00005182,-0.00007636,0.00003290,-0.0000502
 0,-0.00008236,0.00001934,-0.00008973,0.00005576,-0.00003156,0.00014789
 ,-0.00004564,-0.00001429,-0.00041044,-0.00006054,0.00000417,0.00009440
 ,0.00018323,-0.00002410,0.00019146,-0.00011561,0.00001312,-0.00012489,
 -0.00025398,0.00017830,-0.00016621,0.00027313,0.00024748,-0.00040277,0
 .00024259,-0.00043780,0.12112066,0.07075813,-0.22866305,-0.00364570,-0
 .00167221,0.00694357,0.00004292,0.00000944,-0.00002330,-0.00000873,0.0
 0000178,-0.00000885,0.00000727,-0.00000210,0.00000117,0.00000258,0.000
 00108,-0.00000470,-0.00001050,-0.00000352,0.00000028,0.00013598,-0.000
 26677,-0.00007110,0.00091362,0.00057701,-0.00085889,-0.00001292,-0.000
 07588,-0.00002377,0.00000581,-0.00001734,-0.00000037,0.00000085,-0.000
 01439,0.00000368,0.00000133,0.00000828,-0.00000050,0.00001793,-0.00000
 568,0.00000614,0.00004855,0.00000382,-0.00000726,-0.00000275,0.0000355
 3,0.00000308,0.00031221,-0.00044012,-0.00021838,-0.13103800,-0.0780290
 6,0.23928657,0.00003460,-0.00005968,-0.00023717,0.00017448,0.00000951,
 0.00006515,-0.00004891,0.00002918,0.00012481,0.00090405,0.00032195,0.0
 0042558,0.01120622,-0.00421482,0.01543782,-0.00193405,-0.00191460,0.00
 272565,-0.00083464,-0.00017081,0.00056526,-0.00429640,-0.00161000,0.00
 123724,-0.00115919,0.00061874,-0.00137034,0.00006308,-0.00063597,-0.00
 008054,-0.00003455,0.00010941,-0.00002336,0.00005552,-0.00000938,0.000
 03167,-0.00004763,-0.00000255,-0.00000879,-0.00001636,-0.00001234,0.00
 003079,-0.00017036,0.00002813,0.00000765,-0.00015705,0.00003485,-0.000
 05081,0.00001593,0.00001752,0.00000961,-0.00003938,-0.00002218,0.00000
 110,0.00004683,0.00000824,0.00002529,-0.00005545,-0.00009252,0.0000414
 5,0.00027905,0.00050940,-0.00005954,-0.00957704,0.00771256,-0.02932431
 ,-0.10924833,0.02743719,-0.10387718,-0.00032702,-0.00036499,0.00008636
 ,-0.00038353,0.00013750,-0.00000484,0.00002127,-0.00001781,-0.00000428
 ,0.00001584,0.00000917,-0.00001520,0.00001434,-0.00003675,-0.00004667,
 0.00059985,-0.00030160,0.00094623,0.00007478,0.00016272,-0.00005618,-0
 .00000060,-0.00000469,-0.00001525,-0.00000321,0.00001146,-0.00000559,-
 0.00000510,0.00000340,-0.00000627,-0.00001789,0.00000719,-0.00000365,-
 0.00000927,-0.00000457,-0.00000154,-0.00000245,-0.00000796,-0.00000337
 ,-0.00000582,-0.00002105,-0.00000079,0.00001415,0.00000735,-0.00005011
 ,0.00102477,0.00034801,0.00039730,0.11459618,-0.00003394,0.00001839,0.
 00024762,-0.00013599,0.00000599,-0.00035423,0.00057377,0.00010338,-0.0
 0015880,-0.00002580,-0.00291020,-0.00141820,0.00566676,0.00101957,0.00
 849164,-0.00243067,0.00473002,0.00233705,-0.00003537,-0.00034489,-0.00
 015952,-0.00134851,0.00672061,0.00219267,-0.00027503,0.00022321,-0.000
 32757,-0.00008660,-0.00000688,0.00001531,-0.00000485,-0.00008460,0.000
 00118,0.00000167,0.00000626,-0.00003614,0.00000814,-0.00000095,0.00000
 494,-0.00000303,-0.00000294,-0.00000401,-0.00001019,-0.00000177,0.0000
 1582,0.00001919,0.00000942,-0.00001553,0.00000316,-0.00003092,0.000007
 47,-0.00002499,0.00000685,-0.00000134,0.00002739,-0.00000223,-0.000033
 35,-0.00010325,-0.00003020,-0.00001438,0.00006075,0.00000722,-0.000031
 05,-0.00209673,0.00342858,-0.00320372,0.02764360,-0.05551652,0.0677049
 8,-0.00091648,0.00024573,0.00099150,0.00032516,-0.00014355,-0.00046647
 ,0.00003723,0.00001047,-0.00004111,0.00002082,-0.00002053,-0.00000099,
 0.00004968,-0.00006886,-0.00004057,0.00027849,0.00023729,0.00050869,0.
 00012738,-0.00089174,-0.00027923,0.00003101,0.00001873,0.00002987,-0.0
 0000067,-0.00000216,0.00000138,0.00000233,0.00000216,0.00000777,-0.000
 00126,0.00000093,-0.00000134,0.00000168,-0.00000031,0.00000381,0.00000
 123,0.00000218,0.00000737,-0.00000512,-0.00000908,-0.00000056,-0.00000
 481,0.00002173,0.00001677,0.00058643,-0.00362097,-0.00134117,-0.027085
 23,0.04763522,-0.00009262,0.00017415,0.00036753,-0.00039690,-0.0000639
 4,-0.00023883,0.00078895,-0.00018546,-0.00022788,-0.00210597,-0.001302
 77,-0.00002213,-0.01170375,0.00536980,-0.01741619,0.00374336,0.0027542
 2,-0.00180425,0.00079002,-0.00005947,0.00034643,0.00018473,0.00172052,
 0.00270839,-0.00033314,0.00012413,-0.00011682,0.00009416,-0.00022913,0
 .00007347,-0.00000937,0.00003273,-0.00000329,0.00002713,-0.00001634,0.
 00000035,-0.00002334,-0.00000255,-0.00000022,-0.00000164,0.00000135,-0
 .00000101,-0.00005261,-0.00002102,-0.00000375,-0.00004711,0.00001574,-
 0.00002152,0.00000562,-0.00001652,0.00000843,-0.00003708,-0.00000138,-
 0.00000386,0.00004106,0.00002034,-0.00001554,-0.00007582,-0.00007098,-
 0.00000700,0.00014153,0.00021149,-0.00009109,0.00021588,0.00047626,0.0
 0074947,-0.10291900,0.06716410,-0.27026230,-0.00030135,-0.00072363,0.0
 0011994,0.00047867,-0.00009495,0.00026230,-0.00002996,0.00005225,0.000
 01837,0.00001840,0.00002744,0.00000162,-0.00004341,0.00004060,0.000079
 39,-0.00067664,0.00031323,-0.00100926,-0.00007238,-0.00029951,-0.00011
 526,0.00001477,-0.00001468,0.00000362,-0.00000036,0.00000653,-0.000003
 23,-0.00000566,0.00000414,-0.00000074,-0.00000883,0.00000071,-0.000001
 37,-0.00000687,-0.00000153,0.00000156,-0.00000484,-0.00000429,0.000004
 69,-0.00000419,-0.00001490,0.00000201,-0.00000841,0.00004001,0.0000078
 5,-0.00005773,-0.00152360,0.00043812,0.11289858,-0.07418931,0.28571107
 ,-0.00510555,-0.00141311,-0.00229157,-0.00045843,-0.00026551,-0.000832
 31,-0.00057865,-0.00133131,-0.00247468,0.01040168,-0.00338796,-0.00944
 158,0.00054403,-0.00008525,-0.00027317,0.00012175,0.00000265,-0.000063
 34,0.00012719,0.00002661,-0.00001188,-0.00014579,-0.00001337,0.0001708
 9,0.00013940,-0.00000151,0.00000244,-0.00004684,0.00007806,-0.00004877
 ,0.00000445,-0.00002976,0.00000586,-0.00001158,0.00001201,-0.00000680,
 0.00001324,0.00000011,0.00000081,-0.00000092,-0.00000172,0.00000131,0.
 00002419,0.00001070,0.00000239,0.00002815,-0.00000746,0.00000318,-0.00
 000210,-0.00000042,-0.00000196,0.00001137,0.00000270,-0.00000006,-0.00
 000955,-0.00001201,0.00000059,0.00000004,0.00002700,-0.00000662,-0.000
 04832,-0.00008961,0.00004153,-0.00022438,0.00009940,-0.00012580,-0.000
 34791,-0.00055547,-0.00014829,-0.15906672,0.04633594,0.12527500,-0.014
 36777,0.00926517,0.02580961,-0.00084128,0.00046085,0.00131646,0.000078
 74,0.00010467,0.00011706,0.00057760,-0.00024452,-0.00061038,-0.0000009
 1,-0.00002860,0.00001873,0.00001729,0.00001630,0.00001478,-0.00000088,
 0.00001530,-0.00000014,0.00000013,-0.00000433,0.00000193,0.00000399,-0
 .00000179,0.00000209,0.00000422,0.00000055,0.00000106,0.00000408,0.000
 00035,0.00000066,0.00000345,0.00000294,0.00000007,-0.00000027,0.000004
 84,-0.00000021,0.00000025,-0.00001242,0.00000256,0.00002619,-0.0000579
 0,-0.00002510,-0.00078677,-0.00079086,-0.00043423,0.16885168,-0.001047
 65,0.00632094,-0.00235365,-0.00012526,-0.00027509,0.00014493,-0.001774
 55,0.00468573,-0.00320730,0.00818515,0.00041840,-0.00709581,-0.0002780
 0,-0.00287812,0.00149021,0.00050405,0.00014022,0.00025481,-0.00018087,
 0.00000215,0.00030924,-0.00004387,0.00000287,-0.00029069,0.00009267,-0
 .00001255,0.00006099,-0.00005650,0.00006768,-0.00000806,0.00000927,-0.
 00001796,0.00000084,-0.00000326,0.00000315,-0.00000262,0.00000418,-0.0
 0000649,0.00000264,-0.00000649,0.00000297,-0.00000308,0.00002552,0.000
 00990,-0.00000231,0.00000364,-0.00000459,0.00000374,0.00000381,0.00000
 782,-0.00000155,0.00001175,-0.00000569,0.00000367,-0.00000984,-0.00001
 312,0.00000698,-0.00000767,0.00002432,0.00000224,-0.00000590,-0.000033
 62,0.00000220,0.00024187,-0.00010970,0.00057565,-0.00070773,0.00020801
 ,-0.00113968,0.04624655,-0.06065286,-0.06721620,-0.00267097,0.00347454
 ,0.00257708,-0.00015649,0.00026423,0.00004150,0.00008219,-0.00106871,0
 .00041509,0.00038963,0.00034945,-0.00052720,0.00003942,-0.00006893,0.0
 0005384,0.00001969,-0.00002131,0.00000195,-0.00000182,0.00001142,0.000
 00306,0.00000171,-0.00000517,0.00000267,0.00000241,-0.00000183,0.00000
 100,0.00000163,0.00000026,-0.00000022,0.00000325,-0.00000019,0.0000001
 2,0.00000275,0.00000084,-0.00000099,-0.00000183,-0.00000120,-0.0000015
 1,0.00000451,-0.00001021,-0.00000802,-0.00004742,0.00000668,-0.0000231
 1,-0.00088452,-0.00077242,0.00031380,-0.04817549,0.05331665,-0.0010260
 2,-0.00205948,0.00222377,-0.00098179,-0.00003125,-0.00005370,-0.003611
 24,-0.00341658,-0.00259691,0.01745238,-0.00693427,-0.01684773,0.002314
 73,0.00147113,0.00028108,-0.00079946,0.00017590,-0.00046172,0.00051469
 ,0.00004527,-0.00016464,-0.00010303,-0.00016295,0.00044825,0.00008776,
 -0.00005023,0.00002953,-0.00001134,0.00005888,-0.00002646,-0.00000491,
 -0.00002795,0.00001121,-0.00001050,0.00001600,-0.00000551,0.00001268,0
 .00000502,0.00000138,0.00000397,-0.00000348,0.00000249,0.00001452,0.00
 000175,0.00000023,0.00002608,-0.00000598,0.00000518,-0.00000456,-0.000
 00206,0.00000015,0.00000740,0.00000516,0.00000011,-0.00000640,-0.00000
 923,0.00000226,0.,0.00002642,0.00000088,-0.00005478,-0.00008305,0.0000
 1621,-0.00057877,0.00013829,0.00009129,0.00022524,0.00062465,0.0001325
 5,0.12445774,-0.06621648,-0.21352559,-0.00357668,0.00132559,0.00598526
 ,-0.00024749,-0.00007760,0.00023248,0.00012137,0.00043976,-0.00013267,
 0.00101771,-0.00045779,-0.00095681,0.00003669,-0.00004166,0.00009471,-
 0.00001985,-0.00002068,-0.00000198,0.00000113,0.00001343,-0.00000706,-
 0.00000166,-0.00000267,-0.00000155,0.00000493,-0.00000194,0.00000099,0
 .00000514,0.00000071,0.00000032,0.00000375,-0.00000038,0.00000024,0.00
 000394,0.00000325,-0.00000081,0.00000011,0.00000520,-0.00000237,0.0000
 0098,-0.00001574,-0.00000224,-0.00001021,0.00001733,-0.00000884,0.0001
 5026,-0.00047234,0.00046812,-0.13564718,0.07401617,0.22448556,0.011916
 66,0.00711956,0.01782961,-0.00218245,0.00067791,0.00306160,-0.00102013
 ,0.00019954,0.00071766,-0.00556214,-0.00020896,0.00102940,0.00024100,-
 0.00044918,-0.00146862,-0.00044592,-0.00011716,0.00011684,-0.00003163,
 0.00008518,-0.00008432,0.00010890,0.00000228,0.00000602,-0.00013575,-0
 .00001458,-0.00001175,0.00004814,-0.00007604,0.00004977,-0.00000612,0.
 00002673,-0.00000247,0.00001075,-0.00000897,0.00000587,-0.00001232,0.0
 0000078,-0.00000058,0.00000149,0.00000126,-0.00000137,-0.00002433,-0.0
 0001094,-0.00000103,-0.00002509,0.00000684,-0.00000336,0.00000067,-0.0
 0000069,0.00000252,-0.00001177,-0.00000174,-0.00000024,0.00000951,0.00
 001132,-0.00000101,-0.00000057,-0.00002510,0.00000795,0.00004092,0.000
 08130,-0.00004197,-0.00002973,0.00002556,0.00002737,-0.00003287,0.0001
 0348,-0.00005916,-0.00744316,-0.01158517,-0.02882920,-0.10074532,-0.03
 701450,-0.09049522,0.00090472,0.00001717,-0.00056922,0.00048924,0.0003
 7627,0.00101465,0.00014440,0.00003221,-0.00013464,0.00002053,-0.000013
 69,-0.00001901,-0.00004912,-0.00000397,-0.00001209,0.00000158,-0.00001
 282,-0.00000217,-0.00000034,0.00000409,-0.00000228,-0.00000328,0.00000
 162,-0.00000197,-0.00000366,-0.00000043,-0.00000120,-0.00000381,-0.000
 00049,-0.00000061,-0.00000312,-0.00000247,0.,0.00000031,-0.00000425,-0
 .00000002,-0.00000041,0.00001065,-0.00000325,-0.00002784,-0.00000671,0
 .00000449,0.00002008,-0.00004650,0.00001034,0.00106153,0.00031047,0.00
 023263,0.10278047,-0.00411804,0.00017304,-0.00571134,0.00091703,0.0058
 2448,-0.00293029,0.00036072,-0.00017719,0.00025337,-0.00039573,0.00670
 320,-0.00174833,0.00003891,0.00029045,-0.00014731,-0.00009927,-0.00010
 757,-0.00002446,-0.00006075,-0.00000738,0.00001659,0.00005173,0.000015
 08,-0.00000037,-0.00005405,-0.00002639,-0.00000178,0.00001032,-0.00001
 938,0.00001436,0.00000180,0.00000936,-0.00000190,0.00000496,-0.0000038
 7,0.00000197,-0.00000490,-0.00000304,0.00000043,-0.00000132,0.00000284
 ,-0.00000117,-0.00000406,-0.00000429,0.00000036,-0.00001232,0.00000314
 ,-0.00000241,0.00000212,0.00000112,0.00000099,-0.00000310,-0.00000281,
 0.00000082,0.00000200,0.00000386,-0.00000010,-0.00000312,-0.00000902,0
 .00000331,0.00002244,0.00003475,-0.00001714,-0.00002731,0.00002509,-0.
 00001164,-0.00003261,-0.00009264,-0.00001307,-0.00031886,0.00147440,-0
 .00214334,-0.03678536,-0.07159875,-0.09019019,0.00025657,-0.00321274,0
 .00153893,-0.00022702,0.00016511,-0.00039951,0.00000523,-0.00108160,0.
 00040753,-0.00000754,-0.00002482,0.00002254,-0.00000904,0.00000888,-0.
 00000099,-0.00000087,-0.00000261,0.00000008,0.00000082,-0.00000006,0.0
 0000022,-0.00000107,0.00000051,-0.00000050,-0.00000167,-0.00000039,-0.
 00000038,-0.00000117,-0.00000002,-0.00000018,-0.00000149,-0.00000134,-
 0.00000007,-0.00000019,-0.00000309,-0.00000004,0.00000071,0.00000471,-
 0.00000203,-0.00000940,0.00000100,0.00000132,-0.00004947,0.00000775,-0
 .00002759,0.00004425,-0.00335849,0.00170387,0.04051014,0.06498872,-0.0
 1174615,-0.00767980,-0.01631869,0.00439766,-0.00280501,-0.00102373,0.0
 0065119,0.00028613,0.00035861,-0.00012053,-0.00185032,0.00249412,0.000
 25372,-0.00008358,-0.00007561,-0.00005930,-0.00000418,0.00005982,-0.00
 000108,-0.00001565,-0.00000747,0.00009126,0.00000732,0.00000511,-0.000
 13177,-0.00000509,-0.00001292,0.00004874,-0.00007374,0.00004884,-0.000
 00486,0.00002503,-0.00000431,0.00000967,-0.00000932,0.00000492,-0.0000
 1066,0.00000126,-0.00000079,0.00000280,0.00000060,-0.00000114,-0.00002
 518,-0.00001192,-0.00000118,-0.00002300,0.00000753,-0.00000340,0.00000
 075,-0.00000169,0.00000255,-0.00001134,-0.00000021,-0.00000103,0.00000
 971,0.00001191,-0.00000148,0.00000149,-0.00002458,0.00000698,0.0000376
 5,0.00007494,-0.00003910,-0.00000629,0.00001990,-0.00000040,-0.0000665
 2,0.00002454,-0.00004407,0.00066791,-0.00057433,0.00079304,-0.09066057
 ,-0.08985780,-0.26260971,0.00016040,0.00162217,0.00041002,-0.00064179,
 -0.00047449,-0.00092567,-0.00012674,0.00038903,-0.00018545,0.00001898,
 -0.00000178,0.00000124,-0.00001142,-0.00000367,-0.00000772,0.00000140,
 -0.00001192,-0.00000038,-0.00000010,0.00000427,-0.00000194,-0.00000371
 ,0.00000202,-0.00000184,-0.00000372,-0.00000073,-0.00000087,-0.0000041
 0,-0.00000009,-0.00000059,-0.00000335,-0.00000262,0.00000021,0.0000009
 3,-0.00000319,0.00000021,-0.00000105,0.00000984,-0.00000234,-0.0000141
 9,-0.00000291,0.00000618,0.00003803,0.00000511,-0.00000719,-0.00034493
 ,0.00159761,0.00028237,0.09763003,0.09940945,0.27680483\\-0.00001357,-
 0.00000113,-0.00000141,-0.00001739,-0.00001280,-0.00001597,0.00000992,
 0.00000275,0.00000898,-0.00000912,-0.00000077,-0.00000095,0.00001291,0
 .00000109,0.00000134,-0.00002768,-0.00000059,-0.00000305,0.00004819,0.
 00001083,0.00000507,-0.00005880,-0.00000487,-0.00000612,0.00004071,0.0
 0000332,0.00000418,-0.00006033,-0.00001019,-0.00002685,0.00000164,0.00
 001027,0.00001070,-0.00002637,-0.00000538,0.00000040,0.00003753,0.0000
 2117,-0.00000590,-0.00002421,-0.00002038,0.00003106,0.00006853,0.00002
 280,-0.00002848,0.00006405,-0.00001178,0.00004225,-0.00002033,0.000016
 67,-0.00003571,0.00003847,-0.00001484,0.00001382,-0.00002623,0.0000010
 1,-0.00000588,0.00000545,-0.00000964,-0.00000993,-0.00006541,-0.000000
 22,0.00001388,0.00004929,-0.00000275,0.00000507,-0.00002746,-0.0000040
 1,-0.00000269,0.00001187,-0.00000094,-0.00000670,-0.00002215,0.0000095
 1,0.00001186,0.00000708,0.00000059,0.00000074,0.00000710,0.00001033,0.
 00000457,0.00001504,-0.00000257,0.00000249,-0.00001949,0.00000435,0.00
 000007,-0.00000273,-0.00000821,-0.00000449,-0.00000368,0.00000994,-0.0
 0000064,0.00000366,0.00000126,-0.00000129,-0.00000222,0.00000005,0.000
 00167,0.00000308,-0.00000045,-0.00000502,0.00000187,0.00000086,0.00000
 554,-0.00000179,-0.00000038,-0.00000209,0.00000348,-0.00000067,0.00000
 202,-0.00000204,-0.00001041,0.00000004,-0.00000490,0.00000755,0.000003
 70,-0.00001809,-0.00000748,-0.00000399,0.00001461,0.00000504,0.0000006
 0,0.00000947,-0.00000895,-0.00000284\\\@
 The archive entry for this job was punched.


 THE MOLECULE ALSO HAS A BODY.  WHEN THIS BODY IS HIT, THE MOLECULE
 FEELS HURT ALL OVER -- A. KITAIGORODSKI
 Job cpu time:       0 days  1 hours 24 minutes 41.5 seconds.
 Elapsed time:       0 days  0 hours 10 minutes 44.6 seconds.
 File lengths (MBytes):  RWF=    789 Int=      0 D2E=      0 Chk=     16 Scr=      1
 Normal termination of Gaussian 16 at Fri Jun  5 17:13:05 2026.
