 Entering Gaussian System, Link 0=/apl/gaussian/16c02/g16/._.g16
 Initial command:
 /apl/gaussian/16c02/g16/l1.exe "/lwork/users/sm2/679431.ccpbs1/gaussian/Gau-3630467.inp" -scrdir="/lwork/users/sm2/679431.ccpbs1/gaussian/"
 Default CPUs for threads: 112,113,114,115,116,117,124,125
 Default is to use a total of   8 processors:
                                8 via shared-memory
                                1 via Linda
 Entering Link 1 = /apl/gaussian/16c02/g16/l1.exe PID=   3630468.
  
 Copyright (c) 1988-2021, Gaussian, Inc.  All Rights Reserved.
  
 This is part of the Gaussian(R) 16 program.  It is based on
 the Gaussian(R) 09 system (copyright 2009, Gaussian, Inc.),
 the Gaussian(R) 03 system (copyright 2003, Gaussian, Inc.),
 the Gaussian(R) 98 system (copyright 1998, Gaussian, Inc.),
 the Gaussian(R) 94 system (copyright 1995, Gaussian, Inc.),
 the Gaussian 92(TM) system (copyright 1992, Gaussian, Inc.),
 the Gaussian 90(TM) system (copyright 1990, Gaussian, Inc.),
 the Gaussian 88(TM) system (copyright 1988, Gaussian, Inc.),
 the Gaussian 86(TM) system (copyright 1986, Carnegie Mellon
 University), and the Gaussian 82(TM) system (copyright 1983,
 Carnegie Mellon University). Gaussian is a federally registered
 trademark of Gaussian, Inc.
  
 This software contains proprietary and confidential information,
 including trade secrets, belonging to Gaussian, Inc.
  
 This software is provided under written license and may be
 used, copied, transmitted, or stored only in accord with that
 written license.
  
 The following legend is applicable only to US Government
 contracts under FAR:
  
                    RESTRICTED RIGHTS LEGEND
  
 Use, reproduction and disclosure by the US Government is
 subject to restrictions as set forth in subparagraphs (a)
 and (c) of the Commercial Computer Software - Restricted
 Rights clause in FAR 52.227-19.
  
 Gaussian, Inc.
 340 Quinnipiac St., Bldg. 40, Wallingford CT 06492
  
  
 ---------------------------------------------------------------
 Warning -- This program may not be used in any manner that
 competes with the business of Gaussian, Inc. or will provide
 assistance to any competitor of Gaussian, Inc.  The licensee
 of this program is prohibited from giving any competitor of
 Gaussian, Inc. access to this program.  By using this program,
 the user acknowledges that Gaussian, Inc. is engaged in the
 business of creating and licensing software in the field of
 computational chemistry and represents and warrants to the
 licensee that it is not a competitor of Gaussian, Inc. and that
 it will not use this program in any manner prohibited above.
 ---------------------------------------------------------------
  

 Cite this work as:
 Gaussian 16, Revision C.02,
 M. J. Frisch, G. W. Trucks, H. B. Schlegel, G. E. Scuseria, 
 M. A. Robb, J. R. Cheeseman, G. Scalmani, V. Barone, 
 G. A. Petersson, H. Nakatsuji, X. Li, M. Caricato, A. V. Marenich, 
 J. Bloino, B. G. Janesko, R. Gomperts, B. Mennucci, H. P. Hratchian, 
 J. V. Ortiz, A. F. Izmaylov, J. L. Sonnenberg, D. Williams-Young, 
 F. Ding, F. Lipparini, F. Egidi, J. Goings, B. Peng, A. Petrone, 
 T. Henderson, D. Ranasinghe, V. G. Zakrzewski, J. Gao, N. Rega, 
 G. Zheng, W. Liang, M. Hada, M. Ehara, K. Toyota, R. Fukuda, 
 J. Hasegawa, M. Ishida, T. Nakajima, Y. Honda, O. Kitao, H. Nakai, 
 T. Vreven, K. Throssell, J. A. Montgomery, Jr., J. E. Peralta, 
 F. Ogliaro, M. J. Bearpark, J. J. Heyd, E. N. Brothers, K. N. Kudin, 
 V. N. Staroverov, T. A. Keith, R. Kobayashi, J. Normand, 
 K. Raghavachari, A. P. Rendell, J. C. Burant, S. S. Iyengar, 
 J. Tomasi, M. Cossi, J. M. Millam, M. Klene, C. Adamo, R. Cammi, 
 J. W. Ochterski, R. L. Martin, K. Morokuma, O. Farkas, 
 J. B. Foresman, and D. J. Fox, Gaussian, Inc., Wallingford CT, 2019.
 
 ******************************************
 Gaussian 16:  ES64L-G16RevC.02  7-Dec-2021
                 5-Jun-2026 
 ******************************************
 %chk=Coumarin-6.chk
 %mem=9600MB
 SetSPE:  set environment variable "OMP_PROC_BIND" = "true"
 SetSPE:  set environment variable "OMP_PLACES" = "{112},{113},{114},{115},{116},{117},{124},{125}"
 --------------------------
 #p B3LYP/6-31G(d) opt freq
 --------------------------
 1/18=20,19=15,26=3,38=1/1,3;
 2/9=110,12=2,17=6,18=5,40=1/2;
 3/5=1,6=6,7=1,11=2,25=1,30=1,71=1,74=-5/1,2,3;
 4//1;
 5/5=2,38=5/2;
 6/7=2,8=2,9=2,10=2,28=1/1;
 7//1,2,3,16;
 1/18=20,19=15,26=3/3(2);
 2/9=110/2;
 99//99;
 2/9=110/2;
 3/5=1,6=6,7=1,11=2,25=1,30=1,71=1,74=-5/1,2,3;
 4/5=5,16=3,69=1/1;
 5/5=2,38=5/2;
 7//1,2,3,16;
 1/18=20,19=15,26=3/3(-5);
 2/9=110/2;
 6/7=2,8=2,9=2,10=2,19=2,28=1/1;
 99/9=1/99;
 Leave Link    1 at Fri Jun  5 16:57:04 2026, MaxMem=  1258291200 cpu:               0.0 elap:               0.3
 (Enter /apl/gaussian/16c02/g16/l101.exe)
 ----------------------------------------
 Coumarin-6 - B3LYP/6-31G(d) optimization
 ----------------------------------------
 Symbolic Z-matrix:
 Charge =  0 Multiplicity = 1
 C                    -5.68127   1.33633  -1.4932 
 C                    -5.14727  -0.08616  -1.56246 
 N                    -4.3226   -0.40662  -0.38907 
 C                    -5.03625  -0.92131   0.7898 
 C                    -5.06705   0.09873   1.92026 
 C                    -2.93785  -0.26872  -0.41188 
 C                    -2.27372   0.47012  -1.41177 
 C                    -0.87654   0.61851  -1.44758 
 C                    -0.08953   0.02371  -0.47088 
 C                     1.35612   0.14903  -0.44457 
 C                     2.08031  -0.43918   0.52328 
 C                     3.50061  -0.27227   0.49346 
 N                     4.24516  -0.27846  -0.59981 
 C                     5.57757  -0.05521  -0.29846 
 C                     6.64132  -0.03095  -1.22319 
 C                     7.94491   0.21148  -0.77773 
 C                     8.19777   0.43083   0.57256 
 C                     7.15848   0.41424   1.50802 
 C                     5.85387   0.16848   1.04817 
 S                     4.38721   0.09398   1.93733 
 C                     1.42275  -1.27836   1.56182 
 O                     2.04604  -1.90624   2.41128 
 O                     0.02961  -1.33702   1.52962 
 C                    -0.72025  -0.70566   0.52026 
 C                    -2.11031  -0.85461   0.56 
 H                    -4.87399   2.06949  -1.40392 
 H                    -6.25431   1.56823  -2.39647 
 H                    -6.34629   1.46558  -0.63364 
 H                    -4.60099  -0.24677  -2.49908 
 H                    -5.997    -0.77821  -1.61926 
 H                    -4.60806  -1.87075   1.12967 
 H                    -6.07509  -1.15814   0.52775 
 H                    -5.53529   1.03366   1.59744 
 H                    -5.64317  -0.29382   2.76425 
 H                    -4.06387   0.33926   2.28389 
 H                    -2.83439   0.97609  -2.19259 
 H                    -0.42897   1.20675  -2.24489 
 H                     1.82848   0.74099  -1.22438 
 H                     6.43936  -0.2037   -2.27557 
 H                     8.76351   0.22682  -1.49351 
 H                     9.21626   0.61722   0.90723 
 H                     7.35624   0.58528   2.56193 
 H                    -2.52155  -1.45267   1.36586 
 
 ITRead=  0  0  0  0  0  0  0  0  0  0  0  0  0  0  0  0  0  0  0  0
 ITRead=  0  0  0  0  0  0  0  0  0  0  0  0  0  0  0  0  0  0  0  0
 ITRead=  0  0  0
 MicOpt= -1 -1 -1 -1 -1 -1 -1 -1 -1 -1 -1 -1 -1 -1 -1 -1 -1 -1 -1 -1
 MicOpt= -1 -1 -1 -1 -1 -1 -1 -1 -1 -1 -1 -1 -1 -1 -1 -1 -1 -1 -1 -1
 MicOpt= -1 -1 -1
 NAtoms=     43 NQM=       43 NQMF=       0 NMMI=      0 NMMIF=      0
                NMic=       0 NMicF=      0.
                    Isotopes and Nuclear Properties:
 (Nuclear quadrupole moments (NQMom) in fm**2, nuclear magnetic moments (NMagM)
  in nuclear magnetons)

  Atom         1           2           3           4           5           6           7           8           9          10
 IAtWgt=          12          12          14          12          12          12          12          12          12          12
 AtmWgt=  12.0000000  12.0000000  14.0030740  12.0000000  12.0000000  12.0000000  12.0000000  12.0000000  12.0000000  12.0000000
 NucSpn=           0           0           2           0           0           0           0           0           0           0
 AtZEff=  -0.0000000  -0.0000000  -0.0000000  -0.0000000  -0.0000000  -0.0000000  -0.0000000  -0.0000000  -0.0000000  -0.0000000
 NQMom=    0.0000000   0.0000000   2.0440000   0.0000000   0.0000000   0.0000000   0.0000000   0.0000000   0.0000000   0.0000000
 NMagM=    0.0000000   0.0000000   0.4037610   0.0000000   0.0000000   0.0000000   0.0000000   0.0000000   0.0000000   0.0000000
 AtZNuc=   6.0000000   6.0000000   7.0000000   6.0000000   6.0000000   6.0000000   6.0000000   6.0000000   6.0000000   6.0000000

  Atom        11          12          13          14          15          16          17          18          19          20
 IAtWgt=          12          12          14          12          12          12          12          12          12          32
 AtmWgt=  12.0000000  12.0000000  14.0030740  12.0000000  12.0000000  12.0000000  12.0000000  12.0000000  12.0000000  31.9720718
 NucSpn=           0           0           2           0           0           0           0           0           0           0
 AtZEff=  -0.0000000  -0.0000000  -0.0000000  -0.0000000  -0.0000000  -0.0000000  -0.0000000  -0.0000000  -0.0000000  -0.0000000
 NQMom=    0.0000000   0.0000000   2.0440000   0.0000000   0.0000000   0.0000000   0.0000000   0.0000000   0.0000000   0.0000000
 NMagM=    0.0000000   0.0000000   0.4037610   0.0000000   0.0000000   0.0000000   0.0000000   0.0000000   0.0000000   0.0000000
 AtZNuc=   6.0000000   6.0000000   7.0000000   6.0000000   6.0000000   6.0000000   6.0000000   6.0000000   6.0000000  16.0000000

  Atom        21          22          23          24          25          26          27          28          29          30
 IAtWgt=          12          16          16          12          12           1           1           1           1           1
 AtmWgt=  12.0000000  15.9949146  15.9949146  12.0000000  12.0000000   1.0078250   1.0078250   1.0078250   1.0078250   1.0078250
 NucSpn=           0           0           0           0           0           1           1           1           1           1
 AtZEff=  -0.0000000  -0.0000000  -0.0000000  -0.0000000  -0.0000000  -0.0000000  -0.0000000  -0.0000000  -0.0000000  -0.0000000
 NQMom=    0.0000000   0.0000000   0.0000000   0.0000000   0.0000000   0.0000000   0.0000000   0.0000000   0.0000000   0.0000000
 NMagM=    0.0000000   0.0000000   0.0000000   0.0000000   0.0000000   2.7928460   2.7928460   2.7928460   2.7928460   2.7928460
 AtZNuc=   6.0000000   8.0000000   8.0000000   6.0000000   6.0000000   1.0000000   1.0000000   1.0000000   1.0000000   1.0000000

  Atom        31          32          33          34          35          36          37          38          39          40
 IAtWgt=           1           1           1           1           1           1           1           1           1           1
 AtmWgt=   1.0078250   1.0078250   1.0078250   1.0078250   1.0078250   1.0078250   1.0078250   1.0078250   1.0078250   1.0078250
 NucSpn=           1           1           1           1           1           1           1           1           1           1
 AtZEff=  -0.0000000  -0.0000000  -0.0000000  -0.0000000  -0.0000000  -0.0000000  -0.0000000  -0.0000000  -0.0000000  -0.0000000
 NQMom=    0.0000000   0.0000000   0.0000000   0.0000000   0.0000000   0.0000000   0.0000000   0.0000000   0.0000000   0.0000000
 NMagM=    2.7928460   2.7928460   2.7928460   2.7928460   2.7928460   2.7928460   2.7928460   2.7928460   2.7928460   2.7928460
 AtZNuc=   1.0000000   1.0000000   1.0000000   1.0000000   1.0000000   1.0000000   1.0000000   1.0000000   1.0000000   1.0000000

  Atom        41          42          43
 IAtWgt=           1           1           1
 AtmWgt=   1.0078250   1.0078250   1.0078250
 NucSpn=           1           1           1
 AtZEff=  -0.0000000  -0.0000000  -0.0000000
 NQMom=    0.0000000   0.0000000   0.0000000
 NMagM=    2.7928460   2.7928460   2.7928460
 AtZNuc=   1.0000000   1.0000000   1.0000000
 Leave Link  101 at Fri Jun  5 16:57:05 2026, MaxMem=  1258291200 cpu:               0.1 elap:               0.2
 (Enter /apl/gaussian/16c02/g16/l103.exe)

 GradGradGradGradGradGradGradGradGradGradGradGradGradGradGradGradGradGrad
 Berny optimization.
 Initialization pass.
                           ----------------------------
                           !    Initial Parameters    !
                           ! (Angstroms and Degrees)  !
 --------------------------                            --------------------------
 ! Name  Definition              Value          Derivative Info.                !
 --------------------------------------------------------------------------------
 ! R1    R(1,2)                  1.521          estimate D2E/DX2                !
 ! R2    R(1,26)                 1.0942         estimate D2E/DX2                !
 ! R3    R(1,27)                 1.0946         estimate D2E/DX2                !
 ! R4    R(1,28)                 1.0944         estimate D2E/DX2                !
 ! R5    R(2,3)                  1.4696         estimate D2E/DX2                !
 ! R6    R(2,29)                 1.0961         estimate D2E/DX2                !
 ! R7    R(2,30)                 1.0974         estimate D2E/DX2                !
 ! R8    R(3,4)                  1.471          estimate D2E/DX2                !
 ! R9    R(3,6)                  1.3918         estimate D2E/DX2                !
 ! R10   R(4,5)                  1.523          estimate D2E/DX2                !
 ! R11   R(4,31)                 1.0956         estimate D2E/DX2                !
 ! R12   R(4,32)                 1.0972         estimate D2E/DX2                !
 ! R13   R(5,33)                 1.0943         estimate D2E/DX2                !
 ! R14   R(5,34)                 1.0947         estimate D2E/DX2                !
 ! R15   R(5,35)                 1.0938         estimate D2E/DX2                !
 ! R16   R(6,7)                  1.4095         estimate D2E/DX2                !
 ! R17   R(6,25)                 1.4045         estimate D2E/DX2                !
 ! R18   R(7,8)                  1.4055         estimate D2E/DX2                !
 ! R19   R(7,36)                 1.0863         estimate D2E/DX2                !
 ! R20   R(8,9)                  1.3882         estimate D2E/DX2                !
 ! R21   R(8,37)                 1.0872         estimate D2E/DX2                !
 ! R22   R(9,10)                 1.4513         estimate D2E/DX2                !
 ! R23   R(9,24)                 1.3828         estimate D2E/DX2                !
 ! R24   R(10,11)                1.3443         estimate D2E/DX2                !
 ! R25   R(10,38)                1.087          estimate D2E/DX2                !
 ! R26   R(11,12)                1.4304         estimate D2E/DX2                !
 ! R27   R(11,21)                1.4884         estimate D2E/DX2                !
 ! R28   R(12,13)                1.3227         estimate D2E/DX2                !
 ! R29   R(12,20)                1.7335         estimate D2E/DX2                !
 ! R30   R(13,14)                1.3842         estimate D2E/DX2                !
 ! R31   R(14,15)                1.4097         estimate D2E/DX2                !
 ! R32   R(14,19)                1.3928         estimate D2E/DX2                !
 ! R33   R(15,16)                1.3988         estimate D2E/DX2                !
 ! R34   R(15,39)                1.0854         estimate D2E/DX2                !
 ! R35   R(16,17)                1.3912         estimate D2E/DX2                !
 ! R36   R(16,40)                1.0875         estimate D2E/DX2                !
 ! R37   R(17,18)                1.3984         estimate D2E/DX2                !
 ! R38   R(17,41)                1.0881         estimate D2E/DX2                !
 ! R39   R(18,19)                1.4049         estimate D2E/DX2                !
 ! R40   R(18,42)                1.0859         estimate D2E/DX2                !
 ! R41   R(19,20)                1.7168         estimate D2E/DX2                !
 ! R42   R(21,22)                1.2265         estimate D2E/DX2                !
 ! R43   R(21,23)                1.3947         estimate D2E/DX2                !
 ! R44   R(23,24)                1.407          estimate D2E/DX2                !
 ! R45   R(24,25)                1.3986         estimate D2E/DX2                !
 ! R46   R(25,43)                1.0845         estimate D2E/DX2                !
 ! A1    A(2,1,26)             111.7987         estimate D2E/DX2                !
 ! A2    A(2,1,27)             110.1431         estimate D2E/DX2                !
 ! A3    A(2,1,28)             111.072          estimate D2E/DX2                !
 ! A4    A(26,1,27)            108.1581         estimate D2E/DX2                !
 ! A5    A(26,1,28)            107.7645         estimate D2E/DX2                !
 ! A6    A(27,1,28)            107.7582         estimate D2E/DX2                !
 ! A7    A(1,2,3)              111.3828         estimate D2E/DX2                !
 ! A8    A(1,2,29)             110.544          estimate D2E/DX2                !
 ! A9    A(1,2,30)             108.6811         estimate D2E/DX2                !
 ! A10   A(3,2,29)             111.756          estimate D2E/DX2                !
 ! A11   A(3,2,30)             109.7757         estimate D2E/DX2                !
 ! A12   A(29,2,30)            104.4345         estimate D2E/DX2                !
 ! A13   A(2,3,4)              116.3552         estimate D2E/DX2                !
 ! A14   A(2,3,6)              121.5761         estimate D2E/DX2                !
 ! A15   A(4,3,6)              122.0385         estimate D2E/DX2                !
 ! A16   A(3,4,5)              111.7358         estimate D2E/DX2                !
 ! A17   A(3,4,31)             111.2361         estimate D2E/DX2                !
 ! A18   A(3,4,32)             110.0869         estimate D2E/DX2                !
 ! A19   A(5,4,31)             110.9814         estimate D2E/DX2                !
 ! A20   A(5,4,32)             107.6193         estimate D2E/DX2                !
 ! A21   A(31,4,32)            104.8964         estimate D2E/DX2                !
 ! A22   A(4,5,33)             111.217          estimate D2E/DX2                !
 ! A23   A(4,5,34)             110.045          estimate D2E/DX2                !
 ! A24   A(4,5,35)             112.055          estimate D2E/DX2                !
 ! A25   A(33,5,34)            107.9758         estimate D2E/DX2                !
 ! A26   A(33,5,35)            107.6147         estimate D2E/DX2                !
 ! A27   A(34,5,35)            107.7723         estimate D2E/DX2                !
 ! A28   A(3,6,7)              122.165          estimate D2E/DX2                !
 ! A29   A(3,6,25)             122.2455         estimate D2E/DX2                !
 ! A30   A(7,6,25)             115.5895         estimate D2E/DX2                !
 ! A31   A(6,7,8)              122.8067         estimate D2E/DX2                !
 ! A32   A(6,7,36)             120.7216         estimate D2E/DX2                !
 ! A33   A(8,7,36)             116.4606         estimate D2E/DX2                !
 ! A34   A(7,8,9)              120.0269         estimate D2E/DX2                !
 ! A35   A(7,8,37)             119.0151         estimate D2E/DX2                !
 ! A36   A(9,8,37)             120.9574         estimate D2E/DX2                !
 ! A37   A(8,9,10)             122.7154         estimate D2E/DX2                !
 ! A38   A(8,9,24)             118.1449         estimate D2E/DX2                !
 ! A39   A(10,9,24)            119.1368         estimate D2E/DX2                !
 ! A40   A(9,10,11)            120.7887         estimate D2E/DX2                !
 ! A41   A(9,10,38)            117.8312         estimate D2E/DX2                !
 ! A42   A(11,10,38)           121.3768         estimate D2E/DX2                !
 ! A43   A(10,11,12)           117.9594         estimate D2E/DX2                !
 ! A44   A(10,11,21)           120.7356         estimate D2E/DX2                !
 ! A45   A(12,11,21)           121.2671         estimate D2E/DX2                !
 ! A46   A(11,12,13)           125.1419         estimate D2E/DX2                !
 ! A47   A(11,12,20)           121.0065         estimate D2E/DX2                !
 ! A48   A(13,12,20)           113.6742         estimate D2E/DX2                !
 ! A49   A(12,13,14)           111.17           estimate D2E/DX2                !
 ! A50   A(13,14,15)           125.8966         estimate D2E/DX2                !
 ! A51   A(13,14,19)           115.3002         estimate D2E/DX2                !
 ! A52   A(15,14,19)           118.8023         estimate D2E/DX2                !
 ! A53   A(14,15,16)           119.823          estimate D2E/DX2                !
 ! A54   A(14,15,39)           119.5295         estimate D2E/DX2                !
 ! A55   A(16,15,39)           120.6473         estimate D2E/DX2                !
 ! A56   A(15,16,17)           120.3863         estimate D2E/DX2                !
 ! A57   A(15,16,40)           119.6271         estimate D2E/DX2                !
 ! A58   A(17,16,40)           119.9866         estimate D2E/DX2                !
 ! A59   A(16,17,18)           120.8197         estimate D2E/DX2                !
 ! A60   A(16,17,41)           119.7131         estimate D2E/DX2                !
 ! A61   A(18,17,41)           119.4672         estimate D2E/DX2                !
 ! A62   A(17,18,19)           118.2459         estimate D2E/DX2                !
 ! A63   A(17,18,42)           120.8            estimate D2E/DX2                !
 ! A64   A(19,18,42)           120.954          estimate D2E/DX2                !
 ! A65   A(14,19,18)           121.9225         estimate D2E/DX2                !
 ! A66   A(14,19,20)           108.9247         estimate D2E/DX2                !
 ! A67   A(18,19,20)           129.1519         estimate D2E/DX2                !
 ! A68   A(12,20,19)            90.8429         estimate D2E/DX2                !
 ! A69   A(11,21,22)           123.1886         estimate D2E/DX2                !
 ! A70   A(11,21,23)           116.6732         estimate D2E/DX2                !
 ! A71   A(22,21,23)           120.1364         estimate D2E/DX2                !
 ! A72   A(21,23,24)           122.0068         estimate D2E/DX2                !
 ! A73   A(9,24,23)            120.5157         estimate D2E/DX2                !
 ! A74   A(9,24,25)            121.9974         estimate D2E/DX2                !
 ! A75   A(23,24,25)           117.4856         estimate D2E/DX2                !
 ! A76   A(6,25,24)            121.4346         estimate D2E/DX2                !
 ! A77   A(6,25,43)            121.3847         estimate D2E/DX2                !
 ! A78   A(24,25,43)           117.176          estimate D2E/DX2                !
 ! D1    D(26,1,2,3)            57.1918         estimate D2E/DX2                !
 ! D2    D(26,1,2,29)          -67.6859         estimate D2E/DX2                !
 ! D3    D(26,1,2,30)          178.2525         estimate D2E/DX2                !
 ! D4    D(27,1,2,3)           177.4706         estimate D2E/DX2                !
 ! D5    D(27,1,2,29)           52.5929         estimate D2E/DX2                !
 ! D6    D(27,1,2,30)          -61.4687         estimate D2E/DX2                !
 ! D7    D(28,1,2,3)           -63.2227         estimate D2E/DX2                !
 ! D8    D(28,1,2,29)          171.8996         estimate D2E/DX2                !
 ! D9    D(28,1,2,30)           57.838          estimate D2E/DX2                !
 ! D10   D(1,2,3,4)             87.1522         estimate D2E/DX2                !
 ! D11   D(1,2,3,6)            -94.8073         estimate D2E/DX2                !
 ! D12   D(29,2,3,4)          -148.6514         estimate D2E/DX2                !
 ! D13   D(29,2,3,6)            29.3891         estimate D2E/DX2                !
 ! D14   D(30,2,3,4)           -33.2664         estimate D2E/DX2                !
 ! D15   D(30,2,3,6)           144.774          estimate D2E/DX2                !
 ! D16   D(2,3,4,5)           -108.9925         estimate D2E/DX2                !
 ! D17   D(2,3,4,31)           126.3635         estimate D2E/DX2                !
 ! D18   D(2,3,4,32)            10.5292         estimate D2E/DX2                !
 ! D19   D(6,3,4,5)             72.9769         estimate D2E/DX2                !
 ! D20   D(6,3,4,31)           -51.6671         estimate D2E/DX2                !
 ! D21   D(6,3,4,32)          -167.5014         estimate D2E/DX2                !
 ! D22   D(2,3,6,7)             15.465          estimate D2E/DX2                !
 ! D23   D(2,3,6,25)          -164.6179         estimate D2E/DX2                !
 ! D24   D(4,3,6,7)           -166.6064         estimate D2E/DX2                !
 ! D25   D(4,3,6,25)            13.3107         estimate D2E/DX2                !
 ! D26   D(3,4,5,33)            57.7739         estimate D2E/DX2                !
 ! D27   D(3,4,5,34)           177.3807         estimate D2E/DX2                !
 ! D28   D(3,4,5,35)           -62.7256         estimate D2E/DX2                !
 ! D29   D(31,4,5,33)         -177.4401         estimate D2E/DX2                !
 ! D30   D(31,4,5,34)          -57.8333         estimate D2E/DX2                !
 ! D31   D(31,4,5,35)           62.0604         estimate D2E/DX2                !
 ! D32   D(32,4,5,33)          -63.1931         estimate D2E/DX2                !
 ! D33   D(32,4,5,34)           56.4137         estimate D2E/DX2                !
 ! D34   D(32,4,5,35)          176.3074         estimate D2E/DX2                !
 ! D35   D(3,6,7,8)            179.9776         estimate D2E/DX2                !
 ! D36   D(3,6,7,36)             1.2341         estimate D2E/DX2                !
 ! D37   D(25,6,7,8)             0.0553         estimate D2E/DX2                !
 ! D38   D(25,6,7,36)         -178.6882         estimate D2E/DX2                !
 ! D39   D(3,6,25,24)          179.9645         estimate D2E/DX2                !
 ! D40   D(3,6,25,43)            0.779          estimate D2E/DX2                !
 ! D41   D(7,6,25,24)           -0.1133         estimate D2E/DX2                !
 ! D42   D(7,6,25,43)         -179.2988         estimate D2E/DX2                !
 ! D43   D(6,7,8,9)              0.022          estimate D2E/DX2                !
 ! D44   D(6,7,8,37)          -179.6835         estimate D2E/DX2                !
 ! D45   D(36,7,8,9)           178.8155         estimate D2E/DX2                !
 ! D46   D(36,7,8,37)           -0.8901         estimate D2E/DX2                !
 ! D47   D(7,8,9,10)          -179.4238         estimate D2E/DX2                !
 ! D48   D(7,8,9,24)            -0.0428         estimate D2E/DX2                !
 ! D49   D(37,8,9,10)            0.276          estimate D2E/DX2                !
 ! D50   D(37,8,9,24)          179.6569         estimate D2E/DX2                !
 ! D51   D(8,9,10,11)          179.7262         estimate D2E/DX2                !
 ! D52   D(8,9,10,38)            0.3836         estimate D2E/DX2                !
 ! D53   D(24,9,10,11)           0.3512         estimate D2E/DX2                !
 ! D54   D(24,9,10,38)        -178.9914         estimate D2E/DX2                !
 ! D55   D(8,9,24,23)          179.5676         estimate D2E/DX2                !
 ! D56   D(8,9,24,25)           -0.0155         estimate D2E/DX2                !
 ! D57   D(10,9,24,23)          -1.0288         estimate D2E/DX2                !
 ! D58   D(10,9,24,25)         179.3882         estimate D2E/DX2                !
 ! D59   D(9,10,11,12)        -179.7825         estimate D2E/DX2                !
 ! D60   D(9,10,11,21)           2.4289         estimate D2E/DX2                !
 ! D61   D(38,10,11,12)         -0.4634         estimate D2E/DX2                !
 ! D62   D(38,10,11,21)       -178.2521         estimate D2E/DX2                !
 ! D63   D(10,11,12,13)        -39.2104         estimate D2E/DX2                !
 ! D64   D(10,11,12,20)        135.6359         estimate D2E/DX2                !
 ! D65   D(21,11,12,13)        138.5659         estimate D2E/DX2                !
 ! D66   D(21,11,12,20)        -46.5878         estimate D2E/DX2                !
 ! D67   D(10,11,21,22)        175.0436         estimate D2E/DX2                !
 ! D68   D(10,11,21,23)         -4.4685         estimate D2E/DX2                !
 ! D69   D(12,11,21,22)         -2.6713         estimate D2E/DX2                !
 ! D70   D(12,11,21,23)        177.8167         estimate D2E/DX2                !
 ! D71   D(11,12,13,14)        178.329          estimate D2E/DX2                !
 ! D72   D(20,12,13,14)          3.1513         estimate D2E/DX2                !
 ! D73   D(11,12,20,19)       -178.1743         estimate D2E/DX2                !
 ! D74   D(13,12,20,19)         -2.7746         estimate D2E/DX2                !
 ! D75   D(12,13,14,15)        178.3679         estimate D2E/DX2                !
 ! D76   D(12,13,14,19)         -1.9764         estimate D2E/DX2                !
 ! D77   D(13,14,15,16)        179.8096         estimate D2E/DX2                !
 ! D78   D(13,14,15,39)         -0.3503         estimate D2E/DX2                !
 ! D79   D(19,14,15,16)          0.1649         estimate D2E/DX2                !
 ! D80   D(19,14,15,39)       -179.995          estimate D2E/DX2                !
 ! D81   D(13,14,19,18)       -179.7923         estimate D2E/DX2                !
 ! D82   D(13,14,19,20)         -0.0902         estimate D2E/DX2                !
 ! D83   D(15,14,19,18)         -0.1107         estimate D2E/DX2                !
 ! D84   D(15,14,19,20)        179.5915         estimate D2E/DX2                !
 ! D85   D(14,15,16,17)         -0.0951         estimate D2E/DX2                !
 ! D86   D(14,15,16,40)        179.8355         estimate D2E/DX2                !
 ! D87   D(39,15,16,17)       -179.9334         estimate D2E/DX2                !
 ! D88   D(39,15,16,40)         -0.0028         estimate D2E/DX2                !
 ! D89   D(15,16,17,18)         -0.0338         estimate D2E/DX2                !
 ! D90   D(15,16,17,41)        179.9283         estimate D2E/DX2                !
 ! D91   D(40,16,17,18)       -179.9642         estimate D2E/DX2                !
 ! D92   D(40,16,17,41)         -0.0021         estimate D2E/DX2                !
 ! D93   D(16,17,18,19)          0.0886         estimate D2E/DX2                !
 ! D94   D(16,17,18,42)        179.9865         estimate D2E/DX2                !
 ! D95   D(41,17,18,19)       -179.8736         estimate D2E/DX2                !
 ! D96   D(41,17,18,42)          0.0243         estimate D2E/DX2                !
 ! D97   D(17,18,19,14)         -0.0153         estimate D2E/DX2                !
 ! D98   D(17,18,19,20)       -179.652          estimate D2E/DX2                !
 ! D99   D(42,18,19,14)       -179.9131         estimate D2E/DX2                !
 ! D100  D(42,18,19,20)          0.4502         estimate D2E/DX2                !
 ! D101  D(14,19,20,12)          1.5213         estimate D2E/DX2                !
 ! D102  D(18,19,20,12)       -178.8046         estimate D2E/DX2                !
 ! D103  D(11,21,23,24)          3.8424         estimate D2E/DX2                !
 ! D104  D(22,21,23,24)       -175.6855         estimate D2E/DX2                !
 ! D105  D(21,23,24,9)          -1.2273         estimate D2E/DX2                !
 ! D106  D(21,23,24,25)        178.3741         estimate D2E/DX2                !
 ! D107  D(9,24,25,6)            0.0981         estimate D2E/DX2                !
 ! D108  D(9,24,25,43)         179.3165         estimate D2E/DX2                !
 ! D109  D(23,24,25,6)        -179.497          estimate D2E/DX2                !
 ! D110  D(23,24,25,43)         -0.2786         estimate D2E/DX2                !
 --------------------------------------------------------------------------------
 Trust Radius=3.00D-01 FncErr=1.00D-07 GrdErr=1.00D-06 EigMax=2.50D+02 EigMin=1.00D-04
 Number of steps in this run=    244 maximum allowed number of steps=    258.
 GradGradGradGradGradGradGradGradGradGradGradGradGradGradGradGradGradGrad

 Leave Link  103 at Fri Jun  5 16:57:05 2026, MaxMem=  1258291200 cpu:               0.0 elap:               0.1
 (Enter /apl/gaussian/16c02/g16/l202.exe)
                          Input orientation:                          
 ---------------------------------------------------------------------
 Center     Atomic      Atomic             Coordinates (Angstroms)
 Number     Number       Type             X           Y           Z
 ---------------------------------------------------------------------
      1          6           0       -5.681273    1.336335   -1.493195
      2          6           0       -5.147266   -0.086160   -1.562461
      3          7           0       -4.322600   -0.406618   -0.389067
      4          6           0       -5.036251   -0.921309    0.789798
      5          6           0       -5.067052    0.098731    1.920265
      6          6           0       -2.937849   -0.268720   -0.411885
      7          6           0       -2.273724    0.470119   -1.411770
      8          6           0       -0.876539    0.618515   -1.447581
      9          6           0       -0.089527    0.023712   -0.470876
     10          6           0        1.356120    0.149034   -0.444572
     11          6           0        2.080312   -0.439175    0.523275
     12          6           0        3.500615   -0.272269    0.493456
     13          7           0        4.245163   -0.278464   -0.599807
     14          6           0        5.577573   -0.055209   -0.298458
     15          6           0        6.641316   -0.030954   -1.223187
     16          6           0        7.944910    0.211481   -0.777734
     17          6           0        8.197774    0.430833    0.572565
     18          6           0        7.158479    0.414239    1.508019
     19          6           0        5.853870    0.168476    1.048172
     20         16           0        4.387209    0.093978    1.937333
     21          6           0        1.422750   -1.278360    1.561820
     22          8           0        2.046044   -1.906243    2.411280
     23          8           0        0.029615   -1.337021    1.529621
     24          6           0       -0.720254   -0.705659    0.520264
     25          6           0       -2.110306   -0.854606    0.560004
     26          1           0       -4.873995    2.069493   -1.403918
     27          1           0       -6.254308    1.568229   -2.396468
     28          1           0       -6.346289    1.465577   -0.633638
     29          1           0       -4.600987   -0.246774   -2.499081
     30          1           0       -5.996996   -0.778209   -1.619262
     31          1           0       -4.608055   -1.870752    1.129674
     32          1           0       -6.075088   -1.158139    0.527753
     33          1           0       -5.535286    1.033659    1.597443
     34          1           0       -5.643174   -0.293816    2.764245
     35          1           0       -4.063872    0.339263    2.283889
     36          1           0       -2.834392    0.976095   -2.192592
     37          1           0       -0.428971    1.206749   -2.244885
     38          1           0        1.828479    0.740987   -1.224377
     39          1           0        6.439361   -0.203695   -2.275570
     40          1           0        8.763510    0.226823   -1.493509
     41          1           0        9.216263    0.617218    0.907232
     42          1           0        7.356243    0.585276    2.561930
     43          1           0       -2.521552   -1.452670    1.365855
 ---------------------------------------------------------------------
                    Distance matrix (angstroms):
                    1          2          3          4          5
     1  C    0.000000
     2  C    1.521003   0.000000
     3  N    2.470420   1.469564   0.000000
     4  C    3.274914   2.498583   1.471029   0.000000
     5  C    3.682478   3.488552   2.478427   1.522953   0.000000
     6  C    3.357351   2.497734   1.391787   2.504636   3.179221
     7  C    3.516866   2.930767   2.452036   3.796647   4.363836
     8  C    4.858272   4.329996   3.747891   4.967909   5.401200
     9  C    5.834015   5.175360   4.255676   5.191573   5.522584
    10  C    7.213473   6.602956   5.706110   6.597856   6.844861
    11  C    8.213451   7.530790   6.467666   7.137853   7.302447
    12  C    9.531078   8.890853   7.873982   8.566630   8.693580
    13  N   10.096527   9.443591   8.571313   9.406854   9.654553
    14  C   11.407252  10.799113   9.906822  10.704564  10.874487
    15  C   12.401152  11.793592  11.002015  11.883198  12.123695
    16  C   13.691239  13.119049  12.289219  13.124439  13.289208
    17  C   14.061125  13.524633  12.585143  13.304694  13.337249
    18  C   13.218047  12.692896  11.665673  12.288652  12.236548
    19  C   11.869370  11.309519  10.293538  10.947562  10.955909
    20  S   10.709169  10.158111   9.029037   9.547211   9.454277
    21  C    8.163141   7.372080   6.129840   6.514767   6.643974
    22  O    9.245035   8.417068   7.116913   7.331998   7.406561
    23  O    6.992745   6.158386   4.846523   5.136453   5.309425
    24  C    5.730224   4.931527   3.727359   4.329779   4.636992
    25  C    4.665581   3.783978   2.448606   2.935712   3.391387
    26  H    1.094161   2.178680   2.732230   3.712628   3.869285
    27  H    1.094553   2.158266   3.414846   4.223002   4.712025
    28  H    1.094435   2.169851   2.767715   3.072391   3.166565
    29  H    2.164500   1.096119   2.134293   3.385436   4.457265
    30  H    2.141698   1.097361   2.110701   2.597513   3.763252
    31  H    4.279794   3.274615   2.128790   1.095586   2.171307
    32  H    3.234458   2.525665   2.115787   1.097241   2.129541
    33  H    3.108853   3.374839   2.737011   2.173298   1.094326
    34  H    4.559018   4.359981   3.420529   2.158830   1.094675
    35  H    4.228061   4.018598   2.787109   2.183316   1.093823
    36  H    2.953584   2.621990   2.716498   4.164489   4.761316
    37  H    5.307400   4.939597   4.605145   5.913117   6.331506
    38  H    7.538108   7.032744   6.312726   7.344701   7.605893
    39  H   12.243103  11.609146  10.927940  11.899627  12.251287
    40  H   14.487331  13.914467  13.147902  14.034425  14.246217
    41  H   15.106811  14.591267  13.639261  14.335794  14.328578
    42  H   13.674244  13.183291  12.086671  12.608892  12.449366
    43  H    5.092794   4.163743   2.723555   2.633988   3.032125
                    6          7          8          9         10
     6  C    0.000000
     7  C    1.409509   0.000000
     8  C    2.471609   1.405500   0.000000
     9  C    2.863902   2.419768   1.388212   0.000000
    10  C    4.314367   3.770191   2.492230   1.451308   0.000000
    11  C    5.107399   4.850654   3.707553   2.431214   1.344310
    12  C    6.501806   6.125685   4.870380   3.729164   2.378287
    13  N    7.185477   6.611774   5.268314   4.347123   2.924623
    14  C    8.518854   7.947220   6.590141   5.670272   4.228916
    15  C    9.616400   8.931102   7.549192   6.772977   5.345272
    16  C   10.899490  10.241551   8.856203   8.042487   6.597503
    17  C   11.200921  10.657927   9.298353   8.362648   6.922587
    18  C   10.299918   9.873943   8.563809   7.523439   6.127831
    19  C    8.922849   8.497063   7.192338   6.136158   4.739031
    20  S    7.701094   7.464985   6.280113   5.083854   3.855385
    21  C    4.891800   5.056019   4.235724   2.848547   2.463229
    22  O    5.957427   6.238847   5.459552   4.073354   3.585533
    23  O    3.703586   4.150049   3.675454   2.422349   2.804534
    24  C    2.444902   2.743807   2.377031   1.382807   2.443918
    25  C    1.404513   2.381070   2.778968   2.432633   3.746009
    26  H    3.193748   3.052780   4.252869   5.286484   6.589601
    27  H    4.279235   4.245059   5.542810   6.640630   7.983899
    28  H    3.830721   4.264060   5.594478   6.422813   7.816402
    29  H    2.668876   2.666896   3.965588   4.953791   6.313858
    30  H    3.328020   3.932446   5.310310   6.071248   7.503865
    31  H    2.780736   4.169858   5.173287   5.154401   6.490699
    32  H    3.393560   4.567640   5.838095   6.182310   7.607691
    33  H    3.532742   4.473335   5.581079   5.912210   7.241814
    34  H    4.172195   5.419953   6.425935   6.435046   7.712506
    35  H    2.984086   4.108485   4.915378   4.846000   6.070997
    36  H    2.175129   1.086298   2.125111   3.377222   4.615193
    37  H    3.439676   2.154023   1.087212   2.159146   2.747079
    38  H    4.939386   4.115404   2.716973   2.181970   1.087027
    39  H    9.560838   8.781687   7.408373   6.777538   5.414454
    40  H   11.761687  11.040218   9.648113   8.914219   7.481694
    41  H   12.257545  11.722594  10.363870   9.425983   7.989268
    42  H   10.749010  10.418245   9.157291   8.059328   6.725387
    43  H    2.176097   3.387291   3.861515   3.386448   4.569403
                   11         12         13         14         15
    11  C    0.000000
    12  C    1.430387   0.000000
    13  N    2.444120   1.322731   0.000000
    14  C    3.612965   2.233383   1.384186   0.000000
    15  C    4.900973   3.587353   2.488255   1.409702   0.000000
    16  C    6.042308   4.647762   3.736285   2.430043   1.398771
    17  C    6.179214   4.750149   4.183383   2.803635   2.420854
    18  C    5.242692   3.857538   3.661991   2.446018   2.815163
    19  C    3.858043   2.457595   2.345960   1.392763   2.412243
    20  S    2.757823   1.733484   2.568262   2.537319   3.884005
    21  C    1.488353   2.543844   3.693026   4.713734   6.045306
    22  O    2.391239   2.909243   4.068469   4.820862   6.151633
    23  O    2.454428   3.775603   4.840026   5.980364   7.279997
    24  C    2.813217   4.243145   5.108074   6.384044   7.595233
    25  C    4.211320   5.641452   6.486070   7.776856   8.969341
    26  H    7.640018   8.900448   9.450849  10.722484  11.706704
    27  H    9.056515  10.339131  10.810975  12.125618  13.047264
    28  H    8.716314  10.062403  10.734136  12.025124  13.086827
    29  H    7.335626   8.636659   9.047796  10.415495  11.316530
    30  H    8.363510   9.742903  10.304895  11.672099  12.666578
    31  H    6.866687   8.289177   9.160020  10.444270  11.639122
    32  H    8.187031   9.616653  10.418868  11.733865  12.885777
    33  H    7.830735   9.196290  10.109736  11.325887  12.544281
    34  H    8.043340   9.421562  10.444918  11.633669  12.918104
    35  H    6.438690   7.797505   8.816879   9.989074  11.271100
    36  H    5.790789   6.993253   7.364170   8.684037   9.578254
    37  H    4.082681   5.012750   5.172976   6.438920   7.250154
    38  H    2.123791   2.602629   2.696244   3.942964   4.874351
    39  H    5.185585   4.038371   2.761933   2.161874   1.085420
    40  H    7.012568   5.647583   4.633517   3.414364   2.154816
    41  H    7.223932   5.799227   5.271171   3.891775   3.404286
    42  H    5.748136   4.458681   4.519010   3.428660   3.901022
    43  H    4.786885   6.198461   7.143601   8.385623   9.627179
                   16         17         18         19         20
    16  C    0.000000
    17  C    1.391173   0.000000
    18  C    2.425748   1.398387   0.000000
    19  C    2.776370   2.406018   1.404943   0.000000
    20  S    4.476900   4.061585   2.822555   1.716756   0.000000
    21  C    7.087433   7.056977   5.980500   4.689562   3.288212
    22  O    7.032154   6.832758   5.686608   4.545553   3.115535
    23  O    8.388900   8.411902   7.340850   6.034920   4.604629
    24  C    8.809711   8.990304   8.018994   6.652961   5.360380
    25  C   10.199679  10.387927   9.403142   8.044446   6.709288
    26  H   12.967985  13.321518  12.489983  11.167528  10.041738
    27  H   14.355447  14.797686  14.017117  12.666208  11.584349
    28  H   14.346842  14.630632  13.713889  12.383651  11.122012
    29  H   12.671723  13.179622  12.441014  11.048053  10.029235
    30  H   14.002299  14.413791  13.574547  12.184188  11.010984
    31  H   12.866656  13.022939  11.992317  10.659126   9.242686
    32  H   14.147101  14.361108  13.362656  12.013774  10.630821
    33  H   13.712517  13.784438  12.709184  11.435170   9.972685
    34  H   14.051226  14.032121  12.882615  11.633599  10.071879
    35  H   12.393575  12.380831  11.249389   9.995887   8.461739
    36  H   10.898615  11.386488  10.670880   9.308099   8.365760
    37  H    8.559496   9.108283   8.501869   7.169124   6.474936
    38  H    6.155533   6.625188   5.998471   4.657899   4.118511
    39  H    2.163923   3.406834   3.900580   3.395376   4.695582
    40  H    1.087509   2.151822   3.408874   3.863879   5.562404
    41  H    2.149436   1.088146   2.153281   3.395132   4.965345
    42  H    3.411687   2.165549   1.085860   2.173088   3.073542
    43  H   10.812548  10.912417   9.859441   8.536787   7.102794
                   21         22         23         24         25
    21  C    0.000000
    22  O    1.226506   0.000000
    23  O    1.394741   2.273175   0.000000
    24  C    2.450569   3.559459   1.407026   0.000000
    25  C    3.696713   4.669948   2.398363   1.398575   0.000000
    26  H    7.723517   8.845855   6.652471   5.353271   4.477200
    27  H    9.094412  10.202071   7.958790   6.656099   5.637695
    28  H    8.526850   9.543162   7.292900   6.139872   4.975095
    29  H    7.337608   8.429028   6.233903   4.938331   3.991360
    30  H    8.088390   9.066875   6.822592   5.694457   4.456612
    31  H    6.075219   6.776490   4.685383   4.104123   2.756052
    32  H    7.569763   8.370192   6.188952   5.373922   3.976514
    33  H    7.332187   8.172021   6.049202   5.231642   4.046271
    34  H    7.234807   7.864387   5.898568   5.425883   4.201704
    35  H    5.765510   6.510730   4.487258   3.921992   2.865924
    36  H    6.107490   7.302203   5.235257   3.828507   3.384162
    37  H    4.908731   6.123422   4.574709   3.374641   3.865679
    38  H    3.464862   4.502573   3.890827   3.410659   4.609117
    39  H    6.406782   6.645786   7.539811   7.702515   9.031112
    40  H    8.092427   8.057400   9.373679   9.739948  11.118736
    41  H    8.047394   7.748681   9.412806  10.031655  11.427073
    42  H    6.299183   5.867587   7.644630   8.429989   9.782460
    43  H    3.953012   4.707609   2.559032   2.125495   1.084528
                   26         27         28         29         30
    26  H    0.000000
    27  H    1.772480   0.000000
    28  H    1.767964   1.768210   0.000000
    29  H    2.576627   2.457283   3.075403   0.000000
    30  H    3.068698   2.485162   2.475487   1.733593   0.000000
    31  H    4.692050   5.193304   4.154733   3.975577   3.267943
    32  H    3.948617   4.002033   2.882058   3.487877   2.181769
    33  H    3.243212   4.093174   2.412881   4.392486   3.720649
    34  H    4.852881   5.520295   3.890430   5.365722   4.424360
    35  H    4.153301   5.311695   3.871688   4.848581   4.496698
    36  H    2.444893   3.476782   3.873415   2.170300   3.661741
    37  H    4.605408   5.838510   6.138221   4.425275   5.944271
    38  H    6.835226   8.209115   8.228051   6.628618   7.981350
    39  H   11.572346  12.817316  12.998279  11.042694  12.466907
    40  H   13.761722  15.104621  15.184858  13.410639  14.795217
    41  H   14.352208  15.847947  15.661641  14.257133  15.484626
    42  H   12.942549  14.518919  14.097729  13.010822  14.058821
    43  H    5.060757   6.100359   5.209870   4.551480   4.630824
                   31         32         33         34         35
    31  H    0.000000
    32  H    1.738479   0.000000
    33  H    3.084504   2.497919   0.000000
    34  H    2.496001   2.436288   1.770666   0.000000
    35  H    2.551963   3.061244   1.765914   1.767972   0.000000
    36  H    4.721003   4.738917   4.654300   5.837137   4.685729
    37  H    6.190590   6.720033   6.392800   7.384510   5.871527
    38  H    7.334283   8.315227   7.891347   8.532615   6.869433
    39  H   11.679905  12.860055  12.646084  13.091811  11.463044
    40  H   13.786938  15.039535  14.651299  15.031703  13.372476
    41  H   14.048176  15.398744  14.773558  15.002711  13.354191
    42  H   12.297474  13.695912  12.935332  13.030678  11.426148
    43  H    2.141044   3.662892   3.913829   3.611504   2.536250
                   36         37         38         39         40
    36  H    0.000000
    37  H    2.417020   0.000000
    38  H    4.768132   2.520804   0.000000
    39  H    9.348866   7.011725   4.822620   0.000000
    40  H   11.643087   9.275049   6.959271   2.489706   0.000000
    41  H   12.448132  10.164346   7.690152   4.302943   2.474056
    42  H   11.251990   9.170674   6.701981   4.986437   4.307607
    43  H    4.319643   4.948621   5.517627   9.752840  11.762198
                   41         42         43
    41  H    0.000000
    42  H    2.489723   0.000000
    43  H   11.927744  10.156508   0.000000
 Stoichiometry    C20H18N2O2S
 Framework group  C1[X(C20H18N2O2S)]
 Deg. of freedom   123
 Full point group                 C1      NOp   1
 Largest Abelian subgroup         C1      NOp   1
 Largest concise Abelian subgroup C1      NOp   1
                         Standard orientation:                         
 ---------------------------------------------------------------------
 Center     Atomic      Atomic             Coordinates (Angstroms)
 Number     Number       Type             X           Y           Z
 ---------------------------------------------------------------------
      1          6           0        6.748196   -1.783305    0.962121
      2          6           0        6.229596   -1.361655   -0.404158
      3          7           0        5.328971   -0.204928   -0.301803
      4          6           0        5.963961    1.121678   -0.330595
      5          6           0        5.910835    1.802045    1.030898
      6          6           0        3.948116   -0.361004   -0.224649
      7          6           0        3.348844   -1.600007    0.079423
      8          6           0        1.956401   -1.772743    0.161245
      9          6           0        1.108573   -0.696447   -0.062148
     10          6           0       -0.336302   -0.806016    0.019254
     11          6           0       -1.120896    0.263483   -0.199270
     12          6           0       -2.536934    0.088154   -0.098753
     13          7           0       -3.205135   -0.970891   -0.524836
     14          6           0       -4.556444   -0.853687   -0.248798
     15          6           0       -5.554784   -1.786739   -0.595197
     16          6           0       -6.887300   -1.540872   -0.248049
     17          6           0       -7.233110   -0.381650    0.438961
     18          6           0       -6.259942    0.557081    0.795632
     19          6           0       -4.925410    0.299115    0.440186
     20         16           0       -3.522340    1.242051    0.739378
     21          6           0       -0.530142    1.574592   -0.582935
     22          8           0       -1.205741    2.554720   -0.878284
     23          8           0        0.862303    1.651171   -0.606037
     24          6           0        1.675059    0.528938   -0.361617
     25          6           0        3.060122    0.705090   -0.442746
     26          1           0        5.931867   -2.016976    1.652189
     27          1           0        7.379948   -2.672129    0.867637
     28          1           0        7.352173   -0.991132    1.415398
     29          1           0        5.749540   -2.206741   -0.910965
     30          1           0        7.085790   -1.110203   -1.042832
     31          1           0        5.519887    1.757479   -1.104458
     32          1           0        7.019797    1.028008   -0.614099
     33          1           0        6.393788    1.189828    1.798685
     34          1           0        6.430648    2.764555    0.989899
     35          1           0        4.883621    1.990927    1.355864
     36          1           0        3.958090   -2.475739    0.284255
     37          1           0        1.560360   -2.755377    0.405405
     38          1           0       -0.758293   -1.775261    0.272464
     39          1           0       -5.280390   -2.689253   -1.132144
     40          1           0       -7.655265   -2.261546   -0.519223
     41          1           0       -8.273264   -0.200868    0.702512
     42          1           0       -6.530248    1.461892    1.331676
     43          1           0        3.419409    1.697029   -0.694081
 ---------------------------------------------------------------------
 Rotational constants (GHZ):           0.7052826           0.0744262           0.0694537
 Leave Link  202 at Fri Jun  5 16:57:05 2026, MaxMem=  1258291200 cpu:               0.0 elap:               0.1
 (Enter /apl/gaussian/16c02/g16/l301.exe)
 Standard basis: 6-31G(d) (6D, 7F)
 Ernie: Thresh=  0.10000D-02 Tol=  0.10000D-05 Strict=F.
 There are   415 symmetry adapted cartesian basis functions of A   symmetry.
 There are   415 symmetry adapted basis functions of A   symmetry.
   415 basis functions,   796 primitive gaussians,   415 cartesian basis functions
    92 alpha electrons       92 beta electrons
       nuclear repulsion energy      2134.8933563599 Hartrees.
 IExCor=  402 DFT=T Ex+Corr=B3LYP ExCW=0 ScaHFX=  0.200000
 ScaDFX=  0.800000  0.720000  1.000000  0.810000 ScalE2=  1.000000  1.000000
 IRadAn=      5 IRanWt=     -1 IRanGd=            0 ICorTp=0 IEmpDi=  4
 NAtoms=   43 NActive=   43 NUniq=   43 SFac= 1.00D+00 NAtFMM=   60 NAOKFM=F Big=F
 Integral buffers will be    131072 words long.
 Raffenetti 2 integral format.
 Two-electron integral symmetry is turned on.
 Leave Link  301 at Fri Jun  5 16:57:05 2026, MaxMem=  1258291200 cpu:               0.1 elap:               0.1
 (Enter /apl/gaussian/16c02/g16/l302.exe)
 NPDir=0 NMtPBC=     1 NCelOv=     1 NCel=       1 NClECP=     1 NCelD=      1
         NCelK=      1 NCelE2=     1 NClLst=     1 CellRange=     0.0.
 One-electron integrals computed using PRISM.
 One-electron integral symmetry used in STVInt
 NBasis=   415 RedAO= T EigKep=  3.34D-04  NBF=   415
 NBsUse=   415 1.00D-06 EigRej= -1.00D+00 NBFU=   415
 Precomputing XC quadrature grid using
 IXCGrd= 4 IRadAn=           5 IRanWt=          -1 IRanGd=           0 AccXCQ= 0.00D+00.
 Generated NRdTot=       0 NPtTot=           0 NUsed=           0 NTot=          32
 NSgBfM=   404   404   404   404   404 MxSgAt=    43 MxSgA2=    43.
 Leave Link  302 at Fri Jun  5 16:57:06 2026, MaxMem=  1258291200 cpu:               2.6 elap:               0.4
 (Enter /apl/gaussian/16c02/g16/l303.exe)
 DipDrv:  MaxL=1.
 Leave Link  303 at Fri Jun  5 16:57:06 2026, MaxMem=  1258291200 cpu:               0.1 elap:               0.1
 (Enter /apl/gaussian/16c02/g16/l401.exe)
 ExpMin= 1.17D-01 ExpMax= 2.19D+04 ExpMxC= 3.30D+03 IAcc=3 IRadAn=         5 AccDes= 0.00D+00
 Harris functional with IExCor=  402 and IRadAn=       5 diagonalized for initial guess.
 HarFok:  IExCor=  402 AccDes= 0.00D+00 IRadAn=         5 IDoV= 1 UseB2=F ITyADJ=14
 ICtDFT=  3500011 ScaDFX=  1.000000  1.000000  1.000000  1.000000
 FoFCou: FMM=F IPFlag=           0 FMFlag=      100000 FMFlg1=           0
         NFxFlg=           0 DoJE=T BraDBF=F KetDBF=T FulRan=T
         wScrn=  0.000000 ICntrl=       500 IOpCl=  0 I1Cent=   200000004 NGrid=           0
         NMat0=    1 NMatS0=      1 NMatT0=    0 NMatD0=    1 NMtDS0=    0 NMtDT0=    0
 Petite list used in FoFCou.
 Harris En= -1431.08590337376    
 JPrj=0 DoOrth=F DoCkMO=F.
 Leave Link  401 at Fri Jun  5 16:57:08 2026, MaxMem=  1258291200 cpu:              14.9 elap:               2.0
 (Enter /apl/gaussian/16c02/g16/l502.exe)
 Integral symmetry usage will be decided dynamically.
 Closed shell SCF:
 Using DIIS extrapolation, IDIIS=  1040.
 NGot=  1258291200 LenX=  1257937900 LenY=  1257765234
 Requested convergence on RMS density matrix=1.00D-08 within 128 cycles.
 Requested convergence on MAX density matrix=1.00D-06.
 Requested convergence on             energy=1.00D-06.
 No special actions if energy rises.
 Fock matrices will be formed incrementally for  20 cycles.
 Integral accuracy reduced to 1.0D-05 until final iterations.

 Cycle   1  Pass 0  IDiag  1:
 FoFJK:  IHMeth= 1 ICntrl=       0 DoSepK=F KAlg= 0 I1Cent=           0 FoldK=F
 IRaf= 630000000 NMat=       1 IRICut=       1 DoRegI=T DoRafI=F ISym2E= 0 IDoP0=0 IntGTp=1.
 FoFCou: FMM=F IPFlag=           0 FMFlag=      100000 FMFlg1=           0
         NFxFlg=           0 DoJE=F BraDBF=F KetDBF=F FulRan=T
         wScrn=  0.000000 ICntrl=         0 IOpCl=  0 I1Cent=           0 NGrid=           0
         NMat0=    1 NMatS0=      1 NMatT0=    0 NMatD0=    1 NMtDS0=    0 NMtDT0=    0
 Symmetry not used in FoFCou.
 E= -1430.48935136356    
 DIIS: error= 2.50D-02 at cycle   1 NSaved=   1.
 NSaved= 1 IEnMin= 1 EnMin= -1430.48935136356     IErMin= 1 ErrMin= 2.50D-02
 ErrMax= 2.50D-02  0.00D+00 EMaxC= 1.00D-01 BMatC= 6.27D-01 BMatP= 6.27D-01
 IDIUse=3 WtCom= 7.50D-01 WtEn= 2.50D-01
 Coeff-Com:  0.100D+01
 Coeff-En:   0.100D+01
 Coeff:      0.100D+01
 Gap=     0.191 Goal=   None    Shift=    0.000
 GapD=    0.191 DampG=1.000 DampE=0.500 DampFc=0.5000 IDamp=-1.
 Damping current iteration by 5.00D-01
 RMSDP=5.23D-03 MaxDP=2.29D-01              OVMax= 3.14D-01

 Cycle   2  Pass 0  IDiag  1:
 RMSU=  2.59D-03    CP:  9.79D-01
 E= -1430.66039264770     Delta-E=       -0.171041284137 Rises=F Damp=T
 DIIS: error= 8.25D-03 at cycle   2 NSaved=   2.
 NSaved= 2 IEnMin= 2 EnMin= -1430.66039264770     IErMin= 2 ErrMin= 8.25D-03
 ErrMax= 8.25D-03  0.00D+00 EMaxC= 1.00D-01 BMatC= 1.06D-01 BMatP= 6.27D-01
 IDIUse=3 WtCom= 9.17D-01 WtEn= 8.25D-02
 Coeff-Com:  0.209D+00 0.791D+00
 Coeff-En:   0.343D+00 0.657D+00
 Coeff:      0.220D+00 0.780D+00
 Gap=     0.195 Goal=   None    Shift=    0.000
 RMSDP=1.97D-03 MaxDP=9.08D-02 DE=-1.71D-01 OVMax= 2.76D-01

 Cycle   3  Pass 0  IDiag  1:
 RMSU=  1.71D-03    CP:  9.67D-01  6.27D-01
 E= -1431.00624930833     Delta-E=       -0.345856660630 Rises=F Damp=F
 DIIS: error= 1.02D-02 at cycle   3 NSaved=   3.
 NSaved= 3 IEnMin= 3 EnMin= -1431.00624930833     IErMin= 2 ErrMin= 8.25D-03
 ErrMax= 1.02D-02  0.00D+00 EMaxC= 1.00D-01 BMatC= 1.22D-01 BMatP= 1.06D-01
 IDIUse=2 WtCom= 0.00D+00 WtEn= 1.00D+00
 Coeff-En:   0.000D+00 0.000D+00 0.100D+01
 Coeff:      0.000D+00 0.000D+00 0.100D+01
 Gap=     0.130 Goal=   None    Shift=    0.000
 RMSDP=3.10D-03 MaxDP=1.69D-01 DE=-3.46D-01 OVMax= 2.62D-01

 Cycle   4  Pass 0  IDiag  1:
 RMSU=  1.63D-03    CP:  9.73D-01  1.22D+00 -2.56D-01
 E= -1430.41454666984     Delta-E=        0.591702638484 Rises=F Damp=F
 DIIS: error= 2.67D-02 at cycle   4 NSaved=   4.
 NSaved= 4 IEnMin= 3 EnMin= -1431.00624930833     IErMin= 2 ErrMin= 8.25D-03
 ErrMax= 2.67D-02  0.00D+00 EMaxC= 1.00D-01 BMatC= 7.91D-01 BMatP= 1.06D-01
 IDIUse=2 WtCom= 0.00D+00 WtEn= 1.00D+00
 Coeff-En:   0.000D+00 0.000D+00 0.804D+00 0.196D+00
 Coeff:      0.000D+00 0.000D+00 0.804D+00 0.196D+00
 Gap=     0.165 Goal=   None    Shift=    0.000
 RMSDP=1.68D-03 MaxDP=1.04D-01 DE= 5.92D-01 OVMax= 1.30D-01

 Cycle   5  Pass 0  IDiag  1:
 RMSU=  3.51D-04    CP:  9.72D-01  8.49D-01  3.62D-01  4.97D-01
 E= -1431.06780543198     Delta-E=       -0.653258762134 Rises=F Damp=F
 DIIS: error= 6.94D-03 at cycle   5 NSaved=   5.
 NSaved= 5 IEnMin= 5 EnMin= -1431.06780543198     IErMin= 5 ErrMin= 6.94D-03
 ErrMax= 6.94D-03  0.00D+00 EMaxC= 1.00D-01 BMatC= 5.87D-02 BMatP= 1.06D-01
 IDIUse=3 WtCom= 9.31D-01 WtEn= 6.94D-02
 Coeff-Com:  0.235D-02 0.309D-01 0.359D+00-0.470D-01 0.655D+00
 Coeff-En:   0.000D+00 0.000D+00 0.361D+00 0.000D+00 0.639D+00
 Coeff:      0.218D-02 0.288D-01 0.359D+00-0.438D-01 0.654D+00
 Gap=     0.135 Goal=   None    Shift=    0.000
 RMSDP=6.40D-04 MaxDP=3.46D-02 DE=-6.53D-01 OVMax= 6.37D-02

 Cycle   6  Pass 0  IDiag  1:
 RMSU=  1.52D-04    CP:  9.70D-01  7.44D-01  6.24D-01  3.07D-01  6.54D-01
 E= -1431.12077522129     Delta-E=       -0.052969789311 Rises=F Damp=F
 DIIS: error= 1.23D-03 at cycle   6 NSaved=   6.
 NSaved= 6 IEnMin= 6 EnMin= -1431.12077522129     IErMin= 6 ErrMin= 1.23D-03
 ErrMax= 1.23D-03  0.00D+00 EMaxC= 1.00D-01 BMatC= 1.43D-03 BMatP= 5.87D-02
 IDIUse=3 WtCom= 9.88D-01 WtEn= 1.23D-02
 Coeff-Com: -0.459D-02 0.171D-01 0.180D+00-0.656D-01 0.476D+00 0.397D+00
 Coeff-En:   0.000D+00 0.000D+00 0.000D+00 0.000D+00 0.000D+00 0.100D+01
 Coeff:     -0.453D-02 0.169D-01 0.178D+00-0.648D-01 0.470D+00 0.404D+00
 Gap=     0.135 Goal=   None    Shift=    0.000
 RMSDP=1.03D-04 MaxDP=5.82D-03 DE=-5.30D-02 OVMax= 9.79D-03

 Cycle   7  Pass 0  IDiag  1:
 RMSU=  3.96D-05    CP:  9.70D-01  7.51D-01  6.16D-01  3.02D-01  7.71D-01
                    CP:  4.65D-01
 E= -1431.12206745798     Delta-E=       -0.001292236691 Rises=F Damp=F
 DIIS: error= 1.95D-04 at cycle   7 NSaved=   7.
 NSaved= 7 IEnMin= 7 EnMin= -1431.12206745798     IErMin= 7 ErrMin= 1.95D-04
 ErrMax= 1.95D-04  0.00D+00 EMaxC= 1.00D-01 BMatC= 4.79D-05 BMatP= 1.43D-03
 IDIUse=3 WtCom= 9.98D-01 WtEn= 1.95D-03
 Coeff-Com: -0.182D-02 0.624D-02 0.704D-01-0.301D-01 0.196D+00 0.206D+00
 Coeff-Com:  0.553D+00
 Coeff-En:   0.000D+00 0.000D+00 0.000D+00 0.000D+00 0.000D+00 0.000D+00
 Coeff-En:   0.100D+01
 Coeff:     -0.182D-02 0.623D-02 0.702D-01-0.301D-01 0.195D+00 0.206D+00
 Coeff:      0.554D+00
 Gap=     0.135 Goal=   None    Shift=    0.000
 RMSDP=2.40D-05 MaxDP=1.17D-03 DE=-1.29D-03 OVMax= 2.90D-03

 Cycle   8  Pass 0  IDiag  1:
 RMSU=  1.63D-05    CP:  9.70D-01  7.50D-01  6.19D-01  3.01D-01  7.72D-01
                    CP:  4.99D-01  6.10D-01
 E= -1431.12210312747     Delta-E=       -0.000035669495 Rises=F Damp=F
 DIIS: error= 1.54D-04 at cycle   8 NSaved=   8.
 NSaved= 8 IEnMin= 8 EnMin= -1431.12210312747     IErMin= 8 ErrMin= 1.54D-04
 ErrMax= 1.54D-04  0.00D+00 EMaxC= 1.00D-01 BMatC= 1.31D-05 BMatP= 4.79D-05
 IDIUse=3 WtCom= 9.98D-01 WtEn= 1.54D-03
 Coeff-Com:  0.386D-04-0.552D-03 0.138D-01-0.614D-02 0.352D-01 0.566D-01
 Coeff-Com:  0.375D+00 0.526D+00
 Coeff-En:   0.000D+00 0.000D+00 0.000D+00 0.000D+00 0.000D+00 0.000D+00
 Coeff-En:   0.186D+00 0.814D+00
 Coeff:      0.385D-04-0.551D-03 0.137D-01-0.613D-02 0.351D-01 0.565D-01
 Coeff:      0.375D+00 0.526D+00
 Gap=     0.135 Goal=   None    Shift=    0.000
 RMSDP=9.60D-06 MaxDP=5.90D-04 DE=-3.57D-05 OVMax= 9.14D-04

 Initial convergence to 1.0D-05 achieved.  Increase integral accuracy.
 Cycle   9  Pass 1  IDiag  1:
 E= -1431.12211004758     Delta-E=       -0.000006920106 Rises=F Damp=F
 DIIS: error= 5.75D-05 at cycle   1 NSaved=   1.
 NSaved= 1 IEnMin= 1 EnMin= -1431.12211004758     IErMin= 1 ErrMin= 5.75D-05
 ErrMax= 5.75D-05  0.00D+00 EMaxC= 1.00D-01 BMatC= 1.40D-06 BMatP= 1.40D-06
 IDIUse=1 WtCom= 1.00D+00 WtEn= 0.00D+00
 Coeff-Com:  0.100D+01
 Coeff:      0.100D+01
 Gap=     0.135 Goal=   None    Shift=    0.000
 RMSDP=9.60D-06 MaxDP=5.90D-04 DE=-6.92D-06 OVMax= 7.17D-04

 Cycle  10  Pass 1  IDiag  1:
 RMSU=  3.46D-05    CP:  1.00D+00
 E= -1431.12210897575     Delta-E=        0.000001071830 Rises=F Damp=F
 DIIS: error= 4.57D-05 at cycle   2 NSaved=   2.
 NSaved= 2 IEnMin= 1 EnMin= -1431.12211004758     IErMin= 2 ErrMin= 4.57D-05
 ErrMax= 4.57D-05  0.00D+00 EMaxC= 1.00D-01 BMatC= 2.27D-06 BMatP= 1.40D-06
 IDIUse=1 WtCom= 1.00D+00 WtEn= 0.00D+00
 Coeff-Com:  0.573D+00 0.427D+00
 Coeff:      0.573D+00 0.427D+00
 Gap=     0.135 Goal=   None    Shift=    0.000
 RMSDP=6.02D-06 MaxDP=3.86D-04 DE= 1.07D-06 OVMax= 6.29D-04

 Cycle  11  Pass 1  IDiag  1:
 RMSU=  5.91D-06    CP:  1.00D+00  9.68D-01
 E= -1431.12211116553     Delta-E=       -0.000002189779 Rises=F Damp=F
 DIIS: error= 1.78D-05 at cycle   3 NSaved=   3.
 NSaved= 3 IEnMin= 3 EnMin= -1431.12211116553     IErMin= 3 ErrMin= 1.78D-05
 ErrMax= 1.78D-05  0.00D+00 EMaxC= 1.00D-01 BMatC= 2.85D-07 BMatP= 1.40D-06
 IDIUse=1 WtCom= 1.00D+00 WtEn= 0.00D+00
 Coeff-Com:  0.116D+00 0.260D+00 0.624D+00
 Coeff:      0.116D+00 0.260D+00 0.624D+00
 Gap=     0.135 Goal=   None    Shift=    0.000
 RMSDP=1.90D-06 MaxDP=1.41D-04 DE=-2.19D-06 OVMax= 2.28D-04

 Cycle  12  Pass 1  IDiag  1:
 RMSU=  1.28D-06    CP:  1.00D+00  9.80D-01  7.73D-01
 E= -1431.12211138478     Delta-E=       -0.000000219255 Rises=F Damp=F
 DIIS: error= 6.60D-06 at cycle   4 NSaved=   4.
 NSaved= 4 IEnMin= 4 EnMin= -1431.12211138478     IErMin= 4 ErrMin= 6.60D-06
 ErrMax= 6.60D-06  0.00D+00 EMaxC= 1.00D-01 BMatC= 7.04D-08 BMatP= 2.85D-07
 IDIUse=1 WtCom= 1.00D+00 WtEn= 0.00D+00
 Coeff-Com:  0.890D-03 0.120D+00 0.418D+00 0.462D+00
 Coeff:      0.890D-03 0.120D+00 0.418D+00 0.462D+00
 Gap=     0.135 Goal=   None    Shift=    0.000
 RMSDP=7.13D-07 MaxDP=4.28D-05 DE=-2.19D-07 OVMax= 6.88D-05

 Cycle  13  Pass 1  IDiag  1:
 RMSU=  2.29D-07    CP:  1.00D+00  9.82D-01  7.82D-01  4.77D-01
 E= -1431.12211145037     Delta-E=       -0.000000065587 Rises=F Damp=F
 DIIS: error= 1.11D-06 at cycle   5 NSaved=   5.
 NSaved= 5 IEnMin= 5 EnMin= -1431.12211145037     IErMin= 5 ErrMin= 1.11D-06
 ErrMax= 1.11D-06  0.00D+00 EMaxC= 1.00D-01 BMatC= 1.74D-09 BMatP= 7.04D-08
 IDIUse=1 WtCom= 1.00D+00 WtEn= 0.00D+00
 Coeff-Com: -0.193D-02 0.681D-01 0.243D+00 0.284D+00 0.407D+00
 Coeff:     -0.193D-02 0.681D-01 0.243D+00 0.284D+00 0.407D+00
 Gap=     0.135 Goal=   None    Shift=    0.000
 RMSDP=1.37D-07 MaxDP=5.92D-06 DE=-6.56D-08 OVMax= 1.48D-05

 Cycle  14  Pass 1  IDiag  1:
 RMSU=  6.36D-08    CP:  1.00D+00  9.82D-01  7.81D-01  4.85D-01  4.75D-01
 E= -1431.12211145204     Delta-E=       -0.000000001665 Rises=F Damp=F
 DIIS: error= 2.43D-07 at cycle   6 NSaved=   6.
 NSaved= 6 IEnMin= 6 EnMin= -1431.12211145204     IErMin= 6 ErrMin= 2.43D-07
 ErrMax= 2.43D-07  0.00D+00 EMaxC= 1.00D-01 BMatC= 7.09D-11 BMatP= 1.74D-09
 IDIUse=1 WtCom= 1.00D+00 WtEn= 0.00D+00
 Coeff-Com: -0.116D-02 0.313D-01 0.113D+00 0.132D+00 0.230D+00 0.495D+00
 Coeff:     -0.116D-02 0.313D-01 0.113D+00 0.132D+00 0.230D+00 0.495D+00
 Gap=     0.135 Goal=   None    Shift=    0.000
 RMSDP=3.01D-08 MaxDP=1.74D-06 DE=-1.66D-09 OVMax= 3.05D-06

 Cycle  15  Pass 1  IDiag  1:
 RMSU=  2.20D-08    CP:  1.00D+00  9.82D-01  7.82D-01  4.84D-01  5.06D-01
                    CP:  7.03D-01
 E= -1431.12211145208     Delta-E=       -0.000000000040 Rises=F Damp=F
 DIIS: error= 8.07D-08 at cycle   7 NSaved=   7.
 NSaved= 7 IEnMin= 7 EnMin= -1431.12211145208     IErMin= 7 ErrMin= 8.07D-08
 ErrMax= 8.07D-08  0.00D+00 EMaxC= 1.00D-01 BMatC= 5.77D-12 BMatP= 7.09D-11
 IDIUse=1 WtCom= 1.00D+00 WtEn= 0.00D+00
 Coeff-Com: -0.416D-03 0.955D-02 0.351D-01 0.399D-01 0.774D-01 0.265D+00
 Coeff-Com:  0.574D+00
 Coeff:     -0.416D-03 0.955D-02 0.351D-01 0.399D-01 0.774D-01 0.265D+00
 Coeff:      0.574D+00
 Gap=     0.135 Goal=   None    Shift=    0.000
 RMSDP=9.25D-09 MaxDP=3.54D-07 DE=-4.00D-11 OVMax= 1.00D-06

 SCF Done:  E(RB3LYP) =  -1431.12211145     A.U. after   15 cycles
            NFock= 15  Conv=0.92D-08     -V/T= 2.0078
 KE= 1.420102517811D+03 PE=-7.614578200129D+03 EE= 2.628460214505D+03
 Leave Link  502 at Fri Jun  5 16:57:52 2026, MaxMem=  1258291200 cpu:             324.0 elap:              43.7
 (Enter /apl/gaussian/16c02/g16/l601.exe)
 Copying SCF densities to generalized density rwf, IOpCl= 0 IROHF=0.

 **********************************************************************

            Population analysis using the SCF Density.

 **********************************************************************

 Orbital symmetries:
       Occupied  (A) (A) (A) (A) (A) (A) (A) (A) (A) (A) (A) (A)
                 (A) (A) (A) (A) (A) (A) (A) (A) (A) (A) (A) (A)
                 (A) (A) (A) (A) (A) (A) (A) (A) (A) (A) (A) (A)
                 (A) (A) (A) (A) (A) (A) (A) (A) (A) (A) (A) (A)
                 (A) (A) (A) (A) (A) (A) (A) (A) (A) (A) (A) (A)
                 (A) (A) (A) (A) (A) (A) (A) (A) (A) (A) (A) (A)
                 (A) (A) (A) (A) (A) (A) (A) (A) (A) (A) (A) (A)
                 (A) (A) (A) (A) (A) (A) (A) (A)
       Virtual   (A) (A) (A) (A) (A) (A) (A) (A) (A) (A) (A) (A)
                 (A) (A) (A) (A) (A) (A) (A) (A) (A) (A) (A) (A)
                 (A) (A) (A) (A) (A) (A) (A) (A) (A) (A) (A) (A)
                 (A) (A) (A) (A) (A) (A) (A) (A) (A) (A) (A) (A)
                 (A) (A) (A) (A) (A) (A) (A) (A) (A) (A) (A) (A)
                 (A) (A) (A) (A) (A) (A) (A) (A) (A) (A) (A) (A)
                 (A) (A) (A) (A) (A) (A) (A) (A) (A) (A) (A) (A)
                 (A) (A) (A) (A) (A) (A) (A) (A) (A) (A) (A) (A)
                 (A) (A) (A) (A) (A) (A) (A) (A) (A) (A) (A) (A)
                 (A) (A) (A) (A) (A) (A) (A) (A) (A) (A) (A) (A)
                 (A) (A) (A) (A) (A) (A) (A) (A) (A) (A) (A) (A)
                 (A) (A) (A) (A) (A) (A) (A) (A) (A) (A) (A) (A)
                 (A) (A) (A) (A) (A) (A) (A) (A) (A) (A) (A) (A)
                 (A) (A) (A) (A) (A) (A) (A) (A) (A) (A) (A) (A)
                 (A) (A) (A) (A) (A) (A) (A) (A) (A) (A) (A) (A)
                 (A) (A) (A) (A) (A) (A) (A) (A) (A) (A) (A) (A)
                 (A) (A) (A) (A) (A) (A) (A) (A) (A) (A) (A) (A)
                 (A) (A) (A) (A) (A) (A) (A) (A) (A) (A) (A) (A)
                 (A) (A) (A) (A) (A) (A) (A) (A) (A) (A) (A) (A)
                 (A) (A) (A) (A) (A) (A) (A) (A) (A) (A) (A) (A)
                 (A) (A) (A) (A) (A) (A) (A) (A) (A) (A) (A) (A)
                 (A) (A) (A) (A) (A) (A) (A) (A) (A) (A) (A) (A)
                 (A) (A) (A) (A) (A) (A) (A) (A) (A) (A) (A) (A)
                 (A) (A) (A) (A) (A) (A) (A) (A) (A) (A) (A) (A)
                 (A) (A) (A) (A) (A) (A) (A) (A) (A) (A) (A) (A)
                 (A) (A) (A) (A) (A) (A) (A) (A) (A) (A) (A) (A)
                 (A) (A) (A) (A) (A) (A) (A) (A) (A) (A) (A)
 The electronic state is 1-A.
 Alpha  occ. eigenvalues --  -88.89917 -19.21267 -19.13191 -14.37019 -14.32731
 Alpha  occ. eigenvalues --  -10.32425 -10.26978 -10.25379 -10.25327 -10.23748
 Alpha  occ. eigenvalues --  -10.23717 -10.22160 -10.21445 -10.21435 -10.21346
 Alpha  occ. eigenvalues --  -10.21075 -10.20508 -10.19995 -10.19949 -10.19598
 Alpha  occ. eigenvalues --  -10.19194 -10.18947 -10.18891 -10.18874 -10.18721
 Alpha  occ. eigenvalues --   -7.96175  -5.92577  -5.92206  -5.91843  -1.10037
 Alpha  occ. eigenvalues --   -1.01650  -0.96091  -0.95868  -0.87297  -0.84905
 Alpha  occ. eigenvalues --   -0.82727  -0.79648  -0.78827  -0.78032  -0.76035
 Alpha  occ. eigenvalues --   -0.74181  -0.72914  -0.71811  -0.66838  -0.65593
 Alpha  occ. eigenvalues --   -0.64397  -0.63150  -0.62411  -0.60294  -0.58916
 Alpha  occ. eigenvalues --   -0.57374  -0.55432  -0.52341  -0.51725  -0.51181
 Alpha  occ. eigenvalues --   -0.48603  -0.48181  -0.47549  -0.46920  -0.46235
 Alpha  occ. eigenvalues --   -0.46147  -0.45582  -0.44850  -0.44024  -0.43283
 Alpha  occ. eigenvalues --   -0.42999  -0.42580  -0.41857  -0.41786  -0.40306
 Alpha  occ. eigenvalues --   -0.39866  -0.39152  -0.39028  -0.38802  -0.38144
 Alpha  occ. eigenvalues --   -0.37304  -0.37038  -0.36413  -0.35373  -0.34911
 Alpha  occ. eigenvalues --   -0.34579  -0.33576  -0.33053  -0.32505  -0.29326
 Alpha  occ. eigenvalues --   -0.27620  -0.27117  -0.26593  -0.24723  -0.23393
 Alpha  occ. eigenvalues --   -0.22167  -0.20134
 Alpha virt. eigenvalues --   -0.06652  -0.02546  -0.01172   0.00267   0.01257
 Alpha virt. eigenvalues --    0.03440   0.04100   0.06420   0.08320   0.09032
 Alpha virt. eigenvalues --    0.09973   0.10356   0.11073   0.11452   0.11978
 Alpha virt. eigenvalues --    0.13553   0.13949   0.14272   0.14831   0.15223
 Alpha virt. eigenvalues --    0.15622   0.16116   0.16395   0.16525   0.16930
 Alpha virt. eigenvalues --    0.18020   0.18294   0.18655   0.18779   0.19794
 Alpha virt. eigenvalues --    0.21137   0.21469   0.22178   0.23058   0.23810
 Alpha virt. eigenvalues --    0.24454   0.25031   0.26208   0.26971   0.28588
 Alpha virt. eigenvalues --    0.28848   0.29733   0.31615   0.31919   0.33127
 Alpha virt. eigenvalues --    0.35163   0.35601   0.36549   0.38216   0.38409
 Alpha virt. eigenvalues --    0.39802   0.40828   0.43445   0.44460   0.45983
 Alpha virt. eigenvalues --    0.46805   0.47097   0.48423   0.49342   0.49538
 Alpha virt. eigenvalues --    0.50822   0.51299   0.52248   0.53054   0.53644
 Alpha virt. eigenvalues --    0.54290   0.54770   0.55014   0.55598   0.55786
 Alpha virt. eigenvalues --    0.56240   0.56841   0.57521   0.58118   0.58494
 Alpha virt. eigenvalues --    0.58855   0.59475   0.59712   0.60088   0.60673
 Alpha virt. eigenvalues --    0.61086   0.61154   0.61457   0.61891   0.62343
 Alpha virt. eigenvalues --    0.63064   0.63734   0.64344   0.64893   0.65046
 Alpha virt. eigenvalues --    0.66716   0.67013   0.69256   0.69398   0.70465
 Alpha virt. eigenvalues --    0.71310   0.71912   0.73449   0.75191   0.75775
 Alpha virt. eigenvalues --    0.76242   0.77558   0.78028   0.80054   0.80164
 Alpha virt. eigenvalues --    0.81160   0.81677   0.82804   0.83143   0.83404
 Alpha virt. eigenvalues --    0.83809   0.85261   0.85734   0.86102   0.86894
 Alpha virt. eigenvalues --    0.87018   0.87654   0.88273   0.89121   0.89385
 Alpha virt. eigenvalues --    0.90261   0.91044   0.91440   0.91733   0.91977
 Alpha virt. eigenvalues --    0.92825   0.93544   0.94328   0.95292   0.95901
 Alpha virt. eigenvalues --    0.96137   0.96714   0.98109   0.98926   0.99472
 Alpha virt. eigenvalues --    1.00041   1.01676   1.02216   1.02329   1.03117
 Alpha virt. eigenvalues --    1.04392   1.04849   1.05173   1.07149   1.07586
 Alpha virt. eigenvalues --    1.08577   1.10396   1.11169   1.12649   1.13062
 Alpha virt. eigenvalues --    1.14408   1.16386   1.16726   1.17042   1.18375
 Alpha virt. eigenvalues --    1.19289   1.22140   1.22601   1.24015   1.25385
 Alpha virt. eigenvalues --    1.25918   1.27417   1.29406   1.31004   1.36396
 Alpha virt. eigenvalues --    1.37027   1.37660   1.38263   1.38470   1.40038
 Alpha virt. eigenvalues --    1.42208   1.42370   1.42850   1.43235   1.43565
 Alpha virt. eigenvalues --    1.44015   1.47259   1.47957   1.48754   1.49623
 Alpha virt. eigenvalues --    1.50111   1.50495   1.51514   1.52938   1.56102
 Alpha virt. eigenvalues --    1.58332   1.60021   1.60928   1.64393   1.64884
 Alpha virt. eigenvalues --    1.66901   1.68075   1.69383   1.72860   1.74883
 Alpha virt. eigenvalues --    1.76434   1.77334   1.79350   1.79685   1.80278
 Alpha virt. eigenvalues --    1.81583   1.82042   1.83563   1.83987   1.84903
 Alpha virt. eigenvalues --    1.85015   1.86151   1.87025   1.87182   1.88452
 Alpha virt. eigenvalues --    1.90038   1.90950   1.91296   1.91967   1.93928
 Alpha virt. eigenvalues --    1.94151   1.94851   1.95850   1.97061   1.97634
 Alpha virt. eigenvalues --    1.98693   1.99135   2.00117   2.01705   2.02262
 Alpha virt. eigenvalues --    2.03428   2.05295   2.07386   2.08698   2.09372
 Alpha virt. eigenvalues --    2.11778   2.13406   2.13809   2.14434   2.15214
 Alpha virt. eigenvalues --    2.17215   2.18275   2.19122   2.20966   2.22112
 Alpha virt. eigenvalues --    2.24144   2.24961   2.25555   2.27347   2.27570
 Alpha virt. eigenvalues --    2.29064   2.30025   2.30316   2.30941   2.31236
 Alpha virt. eigenvalues --    2.32283   2.32785   2.34456   2.35723   2.36624
 Alpha virt. eigenvalues --    2.37007   2.40043   2.42912   2.46305   2.48368
 Alpha virt. eigenvalues --    2.49872   2.50879   2.51228   2.53707   2.56608
 Alpha virt. eigenvalues --    2.57411   2.57715   2.60863   2.61913   2.63211
 Alpha virt. eigenvalues --    2.63464   2.64474   2.65436   2.66096   2.67890
 Alpha virt. eigenvalues --    2.69589   2.70268   2.72295   2.74193   2.74641
 Alpha virt. eigenvalues --    2.75282   2.77189   2.78549   2.83459   2.86442
 Alpha virt. eigenvalues --    2.89511   2.90503   2.92158   2.97620   2.98278
 Alpha virt. eigenvalues --    3.02334   3.06467   3.14797   3.18500   3.21317
 Alpha virt. eigenvalues --    3.38266   3.40783   3.49089   3.96939   4.02642
 Alpha virt. eigenvalues --    4.04560   4.07943   4.08650   4.09956   4.11041
 Alpha virt. eigenvalues --    4.12002   4.12474   4.17620   4.18731   4.21805
 Alpha virt. eigenvalues --    4.25962   4.27928   4.32890   4.35645   4.37860
 Alpha virt. eigenvalues --    4.41668   4.45517   4.47296   4.49623   4.56828
 Alpha virt. eigenvalues --    4.70818   4.72593   4.83033
          Condensed to atoms (all electrons):
               1          2          3          4          5          6
     1  C    5.141602   0.370308  -0.072842   0.003270  -0.000595  -0.003182
     2  C    0.370308   4.884492   0.321004  -0.046717   0.003201  -0.034176
     3  N   -0.072842   0.321004   6.970028   0.306273  -0.066697   0.324873
     4  C    0.003270  -0.046717   0.306273   4.892847   0.370901  -0.035942
     5  C   -0.000595   0.003201  -0.066697   0.370901   5.130557  -0.002896
     6  C   -0.003182  -0.034176   0.324873  -0.035942  -0.002896   4.477704
     7  C   -0.000412  -0.007283  -0.071209   0.005288  -0.000162   0.493794
     8  C    0.000065   0.000078   0.004703  -0.000075   0.000001  -0.004864
     9  C   -0.000001  -0.000005   0.000305  -0.000010   0.000004  -0.029635
    10  C    0.000000  -0.000000   0.000000  -0.000000   0.000000   0.000005
    11  C   -0.000000   0.000000  -0.000000   0.000000  -0.000000  -0.000020
    12  C    0.000000  -0.000000   0.000000   0.000000  -0.000000  -0.000001
    13  N   -0.000000   0.000000  -0.000000   0.000000   0.000000  -0.000000
    14  C   -0.000000  -0.000000  -0.000000  -0.000000   0.000000  -0.000000
    15  C    0.000000   0.000000   0.000000   0.000000  -0.000000  -0.000000
    16  C    0.000000   0.000000   0.000000   0.000000   0.000000   0.000000
    17  C    0.000000   0.000000   0.000000   0.000000   0.000000   0.000000
    18  C    0.000000  -0.000000   0.000000  -0.000000   0.000000  -0.000000
    19  C    0.000000   0.000000  -0.000000   0.000000  -0.000000   0.000000
    20  S   -0.000000  -0.000000   0.000000   0.000000  -0.000000  -0.000000
    21  C    0.000000  -0.000000   0.000000  -0.000000  -0.000000   0.000069
    22  O   -0.000000   0.000000  -0.000000  -0.000000   0.000000   0.000001
    23  O   -0.000000   0.000000  -0.000020  -0.000001   0.000001   0.002421
    24  C    0.000004  -0.000021   0.004215   0.000390  -0.000037   0.007147
    25  C   -0.000263   0.004904  -0.066217  -0.005715  -0.001620   0.479561
    26  H    0.380502  -0.034081  -0.003109  -0.000478   0.000227   0.001853
    27  H    0.351822  -0.027752   0.005337  -0.000275   0.000009   0.000040
    28  H    0.377677  -0.031171  -0.003528   0.002486  -0.001121   0.000033
    29  H   -0.050590   0.373912  -0.033206   0.003493  -0.000279  -0.005260
    30  H   -0.053263   0.377999  -0.036074  -0.008626  -0.000444   0.003528
    31  H   -0.000222   0.001823  -0.037251   0.371408  -0.051998  -0.006865
    32  H   -0.000844  -0.004501  -0.034269   0.379832  -0.044858   0.003534
    33  H    0.000758  -0.000237  -0.000895  -0.033074   0.376122   0.000240
    34  H   -0.000024  -0.000159   0.005014  -0.027915   0.356445   0.000057
    35  H    0.000058   0.000080  -0.005727  -0.032405   0.381209   0.003407
    36  H   -0.000778   0.004799  -0.010233  -0.000105   0.000003  -0.037629
    37  H   -0.000001   0.000003  -0.000094   0.000002  -0.000000   0.002937
    38  H    0.000000   0.000000  -0.000000   0.000000  -0.000000  -0.000005
    39  H   -0.000000   0.000000  -0.000000   0.000000  -0.000000  -0.000000
    40  H    0.000000   0.000000   0.000000   0.000000   0.000000   0.000000
    41  H    0.000000   0.000000   0.000000   0.000000   0.000000  -0.000000
[...]
 000887,0.00003214,-0.00000157,0.00000167,-0.00000098,0.00000221,-0.000
 00280,0.00000232,0.00000012,0.00000044,-0.00000085,-0.00000116,-0.0000
 0081,0.00000358,0.00000372,-0.00000101,0.00000080,-0.00000074,0.000000
 02,-0.00000223,0.00000361,0.00000056,-0.00000101,0.00000147,-0.0000009
 2,0.00000107,0.00000054,-0.00000079,-0.00000276,-0.00000064,0.00000147
 ,0.00000092,0.00000457,0.00000023,0.00000227,0.00000017,0.00000023,0.0
 0000832,0.00002225,0.00000696,-0.00000595,0.07944150,-0.09768318,0.304
 82093,-0.00000297,0.00000059,-0.00001071,0.00003169,-0.00001223,0.0000
 5104,-0.00016835,-0.00002660,-0.00000065,0.00002156,0.00002278,-0.0000
 4246,-0.00000082,-0.00000734,0.00000791,0.00015366,0.00002471,-0.00001
 710,-0.00008468,-0.00002461,0.00005145,0.00007519,-0.00002032,0.000067
 34,-0.00013750,-0.00000912,-0.00000595,0.00012238,-0.00002800,0.000097
 47,-0.00005345,-0.00000474,0.00003865,-0.00037240,0.00011401,-0.000264
 23,-0.00085893,-0.00066199,0.00143975,-0.00371305,0.00057946,-0.003831
 77,-0.01739236,-0.00965552,0.02227849,-0.19704921,-0.05864549,0.126635
 42,0.00972037,0.00326230,-0.00724952,0.00042221,0.00040100,-0.00210110
 ,-0.00045471,0.00022914,-0.00065109,0.00018925,0.00001724,0.00006488,-
 0.00000780,0.00001876,-0.00005468,-0.00005160,-0.00001502,0.00002928,-
 0.00007192,-0.00001289,0.00001947,0.00007105,0.00002192,-0.00004744,-0
 .00007076,0.00001346,-0.00004532,0.00000181,-0.00000414,0.00000200,-0.
 00000466,0.00000602,-0.00000547,-0.00000056,-0.00000081,0.00000252,0.0
 0000304,0.00000262,-0.00000715,-0.00000943,0.00000066,-0.00000095,0.00
 000293,-0.00000102,0.00000578,-0.00000924,-0.00000133,0.00000203,-0.00
 000193,0.00000179,-0.00000242,-0.00000246,0.00000115,0.00000762,0.0000
 0090,-0.00000242,-0.00000350,-0.00000758,0.00000119,-0.00000431,0.0000
 0577,0.00000163,-0.00000235,0.00002352,-0.00000524,0.00001936,0.001155
 46,0.00046426,-0.00015407,0.20734418,-0.00000010,0.00000020,-0.0000029
 5,0.00000765,-0.00000146,0.00001376,-0.00004367,-0.00000872,-0.0000004
 0,0.00000537,0.00000723,-0.00001083,0.00000023,-0.00000187,0.00000210,
 0.00004047,0.00000755,-0.00000479,-0.00002210,-0.00000827,0.00001301,0
 .00001992,-0.00000648,0.00001554,-0.00003622,-0.00000026,-0.00000212,0
 .00002694,0.00000581,0.00002958,-0.00000115,-0.00014087,-0.00010552,0.
 00007664,-0.00050938,-0.00021698,-0.00008308,0.00081972,0.00026934,0.0
 0005898,0.00693442,0.00219130,0.00129769,0.00261679,-0.00099327,-0.058
 69205,-0.06137686,0.06127977,-0.00771788,-0.00084682,0.00541257,0.0008
 0727,0.00444345,0.00320355,0.00039491,-0.00022412,-0.00012213,0.000038
 23,-0.00032090,-0.00013859,0.00002048,0.00000935,0.00001366,-0.0000272
 3,0.00000306,-0.00000052,-0.00001898,0.00000707,0.00000175,0.00001726,
 0.00001029,-0.00001042,-0.00001780,-0.00000074,-0.00001307,-0.00000011
 ,-0.00000109,0.00000067,-0.00000120,0.00000160,-0.00000149,0.00000011,
 -0.00000029,0.00000053,0.00000120,0.00000074,-0.00000216,-0.00000276,-
 0.00000021,0.00000008,0.00000116,-0.00000047,0.00000177,-0.00000279,-0
 .00000040,0.00000018,-0.00000014,0.00000032,-0.00000061,-0.00000070,0.
 00000021,0.00000212,-0.00000023,-0.00000052,-0.00000105,-0.00000180,0.
 00000128,-0.00000080,0.00000135,0.00000256,0.00000046,0.00000388,-0.00
 000311,0.00000161,0.00019967,-0.00377961,-0.00172116,0.06368459,0.0549
 7762,0.00000137,-0.00000047,0.00000548,-0.00001698,0.00000686,-0.00002
 572,0.00008772,0.00001350,-0.00000087,-0.00001208,-0.00001163,0.000023
 04,0.00000047,0.00000369,-0.00000423,-0.00008140,-0.00001304,0.0000105
 4,0.00004387,0.00001240,-0.00002749,-0.00003902,0.00000835,-0.00003098
 ,0.00007103,0.00000409,0.00000638,-0.00005194,0.00001858,-0.00004608,0
 .00002787,-0.00010666,0.00011386,-0.00016367,-0.00020951,-0.00006012,-
 0.00012707,0.00015485,0.00048104,-0.00242238,0.00229340,0.00105211,-0.
 00737212,-0.00315682,0.00924467,0.12675858,0.06129046,-0.17536185,0.02
 247742,0.00758023,-0.01436656,-0.00320132,0.00312295,-0.00351959,-0.00
 110200,-0.00015427,-0.00009795,0.00000797,-0.00014264,0.00001276,-0.00
 005983,0.00001348,-0.00003539,0.00006271,0.00000185,0.00001234,0.00003
 588,0.00000271,0.00000850,-0.00003445,-0.00000932,0.00002416,0.0000357
 0,-0.00000812,0.00002225,-0.00000087,0.00000244,-0.00000081,0.00000227
 ,-0.00000312,0.00000302,0.00000053,0.00000036,-0.00000172,-0.00000153,
 -0.00000170,0.00000324,0.00000510,-0.00000020,0.00000041,-0.00000150,0
 .00000024,-0.00000305,0.00000500,0.00000070,-0.00000102,0.00000112,-0.
 00000112,0.00000147,0.00000131,-0.00000045,-0.00000425,-0.00000053,0.0
 0000146,0.00000197,0.00000321,-0.00000038,0.00000250,-0.00000294,0.000
 00018,0.00000085,-0.00000526,-0.00000019,-0.00000337,0.00056330,-0.001
 66881,0.00019986,-0.13641036,-0.06811315,0.18263931,-0.00000207,0.0000
 0083,-0.00001061,0.00003118,-0.00001184,0.00004835,-0.00016731,-0.0000
 2721,0.00000241,0.00002340,0.00002347,-0.00004560,-0.00000078,-0.00000
 684,0.00000821,0.00015696,0.00002473,-0.00001748,-0.00008333,-0.000023
 03,0.00004906,0.00007115,-0.00001858,0.00005927,-0.00013629,-0.0000093
 9,-0.00002040,0.00008712,-0.00002674,0.00009556,0.00000644,0.00011982,
 -0.00022583,-0.00014175,-0.00021730,0.00056066,0.00004304,0.00009479,-
 0.00017201,0.00049672,-0.00007960,0.00039484,0.00148179,0.00024031,-0.
 00152740,-0.00452759,-0.00053589,0.00022029,-0.32226481,0.00370510,-0.
 06703669,-0.01698365,0.00128830,-0.00727166,-0.00103499,-0.00177576,0.
 00326747,-0.00033624,0.00018838,-0.00075543,0.00014056,-0.00002834,0.0
 0009834,-0.00020069,-0.00000475,-0.00002011,-0.00011568,-0.00000528,-0
 .00001552,0.00007792,0.00001772,-0.00003294,-0.00007188,0.00001390,-0.
 00004517,0.00000128,-0.00000475,0.00000155,-0.00000422,0.00000593,-0.0
 0000557,-0.00000106,-0.00000064,0.00000321,0.00000307,0.00000334,-0.00
 000601,-0.00001001,0.00000013,-0.00000071,0.00000338,-0.00000064,0.000
 00605,-0.00000991,-0.00000113,0.00000189,-0.00000179,0.00000186,-0.000
 00267,-0.00000305,0.00000070,0.00000842,0.00000102,-0.00000269,-0.0000
 0429,-0.00000652,0.00000145,-0.00000447,0.00000578,0.00000094,-0.00000
 091,0.00001870,-0.00000006,0.00001049,-0.00030821,-0.00007894,0.000076
 29,0.00080826,0.00037779,-0.00019399,0.34202768,-0.00000012,-0.0000001
 9,-0.00000135,0.00000175,0.00000155,0.00000561,-0.00001394,-0.00000224
 ,-0.00000040,0.00000142,0.00000274,-0.00000335,0.00000031,-0.00000059,
 0.00000062,0.00001298,0.00000139,-0.00000128,-0.00000712,-0.00001067,-
 0.00000036,0.00000425,0.00000935,0.00001212,-0.00002113,0.00007439,0.0
 0001826,0.00000096,-0.00003314,0.00001150,0.00004421,-0.00039925,-0.00
 023173,-0.00009493,-0.00009038,0.00021989,0.00012981,-0.00027177,-0.00
 027899,-0.00023137,-0.00053427,0.00028084,-0.00017066,0.00455924,0.003
 65635,0.01039545,0.00186848,0.00159756,0.00380317,-0.03696758,0.009897
 87,-0.00951807,0.00255047,-0.00289279,-0.00157568,0.00538532,0.0033822
 0,-0.00029710,0.00089651,-0.00002190,0.00003231,0.00001649,0.00004511,
 -0.00004991,-0.00003094,-0.00002158,-0.00002411,0.00003422,0.00000464,
 0.00001017,-0.00000136,0.,-0.00000623,-0.00001045,-0.00000943,-0.00000
 015,-0.00000032,0.00000032,-0.00000040,0.00000060,-0.00000045,0.000000
 21,-0.00000009,0.00000002,0.00000114,0.00000023,-0.00000096,-0.0000009
 9,-0.00000013,0.00000031,0.00000068,-0.00000027,0.00000064,-0.00000105
 ,-0.00000008,-0.00000017,0.00000013,-0.00000007,-0.00000011,-0.0000002
 9,0.00000010,0.00000068,-0.00000029,-0.00000009,-0.00000036,-0.0000009
 3,-0.00000155,-0.00000120,0.00000012,0.00000278,0.00000029,0.00000070,
 -0.00002982,-0.00001106,0.00049263,0.00034373,0.00021695,0.00011396,-0
 .00283795,-0.00145973,-0.00353205,0.02904605,0.00000036,0.00000004,0.0
 0000034,-0.00000112,0.00000131,-0.00000143,0.00000615,0.00000080,0.000
 00044,-0.00000098,-0.00000054,0.00000180,0.00000023,0.00000023,-0.0000
 0027,-0.00000584,-0.00000082,-0.00000044,0.00000604,-0.00000335,-0.000
 00013,-0.00000182,0.00000810,-0.00000830,0.00001379,0.00002004,0.00003
 104,0.00002118,0.00000631,-0.00004160,-0.00002185,-0.00021685,0.000094
 46,0.00022905,0.00019576,-0.00048684,-0.00026727,-0.00028587,0.0003367
 6,0.00080663,0.00031048,-0.00109486,-0.00041425,0.00373755,-0.00427795
 ,-0.02937190,-0.00056117,-0.00258089,-0.06730034,0.00987706,-0.0736193
 7,0.02198019,-0.00075800,0.00857038,0.00272461,0.00334294,-0.00176025,
 0.00055892,0.00007382,0.00082012,-0.00006598,0.00003321,-0.00007205,0.
 00010229,-0.00001277,0.00001960,0.00003482,0.00000850,0.00002158,-0.00
 001111,0.00000147,-0.00000824,0.00000530,-0.00000621,0.00000409,-0.000
 00026,0.00000010,-0.00000004,0.00000015,-0.00000021,0.00000004,0.00000
 012,0.,-0.00000006,0.00000027,0.,0.00000018,0.00000023,-0.00000020,0.0
 0000032,0.,-0.00000001,-0.00000017,0.00000020,-0.00000004,-0.00000025,
 0.00000020,-0.00000005,0.00000006,0.00000018,-0.00000006,-0.00000024,-
 0.00000029,0.00000015,0.00000016,0.00000096,-0.00000058,-0.00000023,0.
 00000038,0.00000028,0.00000200,0.00000848,-0.00001111,-0.00000222,-0.0
 0147112,0.00010404,-0.00018429,0.00051960,-0.00140754,0.00052768,0.072
 24755,-0.01271196,0.07328706,-0.00000032,-0.00000005,-0.00000212,0.000
 00493,-0.00000176,0.00000824,-0.00003525,-0.00000678,0.00000328,0.0000
 0476,0.00000560,-0.00001152,-0.00000084,-0.00000157,0.00000179,0.00002
 907,0.00000580,-0.00000599,-0.00001372,-0.00000652,0.00001527,0.000014
 56,-0.00000067,0.00000581,-0.00000897,-0.00001616,0.00004120,0.0000020
 9,0.00001537,-0.00004441,0.00005219,-0.00008760,0.00022928,0.00008097,
 0.00053220,-0.00132095,-0.00144783,0.00034467,-0.00123754,-0.00433999,
 -0.00119597,0.00106497,-0.00119398,-0.00017263,0.00027574,-0.00282776,
 -0.00160221,0.00238257,0.01093609,-0.00710349,0.02087728,-0.08174059,0
 .02310093,-0.07187958,-0.00424593,0.01027719,-0.02898985,0.00111914,0.
 00018107,0.00013509,-0.00009451,0.00005254,-0.00016439,0.00002756,-0.0
 0004333,0.00011489,0.00003434,-0.00001243,0.00004580,-0.00001165,0.000
 01242,-0.00003784,-0.00000859,0.00000031,-0.00000133,0.00000022,-0.000
 00065,0.00000006,-0.00000049,0.00000105,-0.00000062,-0.00000043,-0.000
 00004,0.00000053,0.00000044,0.00000046,-0.00000103,-0.00000169,0.00000
 004,-0.00000027,0.00000070,-0.00000094,0.00000138,-0.00000163,-0.00000
 001,0.00000088,0.00000008,0.,-0.00000022,-0.00000111,0.00000020,0.0000
 0177,0.00000060,0.00000004,-0.00000110,-0.00000105,0.00000009,-0.00000
 065,0.00000213,-0.00000047,0.00000159,0.00003570,-0.00000974,0.0000341
 6,0.00017751,0.00012925,-0.00005522,0.00037505,-0.00041133,0.00110820,
 0.00092791,0.00050017,-0.00033347,0.08215337,0.00000103,-0.00000009,0.
 00000293,-0.00000863,0.00000405,-0.00001255,0.00004564,0.00000477,-0.0
 0000182,-0.00000735,-0.00000415,0.00001320,0.00000118,0.00000167,-0.00
 000217,-0.00004169,-0.00000372,0.00000617,0.00002236,0.00000618,-0.000
 01431,-0.00001934,-0.00000248,-0.00001764,0.00003688,0.00000093,0.0000
 0173,-0.00002859,0.00002144,-0.00001366,-0.00000463,0.00007128,0.00005
 669,0.00012722,-0.00050903,-0.00002035,-0.00006258,0.00015767,-0.00017
 763,-0.00054395,0.00596205,0.00176088,-0.00019982,-0.00015315,-0.00023
 532,-0.00209681,0.00591294,0.00270608,0.00363490,-0.00009264,0.0079481
 2,0.02284064,-0.06530185,0.08836596,-0.00000254,0.00184603,-0.00035713
 ,0.00016027,-0.00173022,-0.00081892,-0.00003430,0.00002892,-0.00003071
 ,0.00006302,0.00003502,0.00002074,0.00003116,-0.00002296,-0.00000194,-
 0.00001802,0.00000104,0.00001305,0.00001880,-0.00000529,0.00001210,-0.
 00000081,0.00000124,-0.00000005,0.00000098,-0.00000166,0.00000135,0.00
 000073,0.00000008,-0.00000112,-0.00000056,-0.00000091,0.00000119,0.000
 00233,-0.00000029,0.00000044,-0.00000023,-0.00000005,-0.00000137,0.000
 00222,0.00000015,-0.00000105,0.00000080,-0.00000073,0.00000077,0.00000
 083,-0.00000010,-0.00000221,-0.00000099,0.00000085,0.00000122,0.000001
 46,0.00000107,0.00000179,-0.00000139,0.00000115,0.00000094,0.00000149,
 -0.00000389,-0.00000309,0.00012169,-0.00115279,-0.00041290,0.00015712,
 0.00022051,0.00052732,0.00028370,-0.00357187,-0.00174543,-0.02448458,0
 .05827796,-0.00000141,0.00000046,-0.00000803,0.00002231,-0.00000788,0.
 00003569,-0.00012665,-0.00002230,0.00000264,0.00001714,0.00001912,-0.0
 0003517,-0.00000065,-0.00000533,0.00000626,0.00011538,0.00002038,-0.00
 001440,-0.00006257,-0.00001946,0.00004051,0.00005643,-0.00001452,0.000
 04091,-0.00010054,-0.00000931,0.00000153,0.00007335,-0.00000490,0.0000
 4664,0.00000445,0.00004030,-0.00001485,-0.00022439,0.00005983,-0.00073
 213,-0.00013568,-0.00009718,0.00033276,-0.00069855,0.00163293,0.002094
 49,0.00034762,-0.00023067,0.00046735,0.00372238,0.00280331,0.00021256,
 -0.00818394,0.00582953,-0.01481490,-0.07117775,0.08841567,-0.28768087,
 -0.00116654,0.00167377,-0.00304896,0.00019092,-0.00081459,0.00019862,0
 .00007033,-0.00001336,0.00007019,-0.00017261,-0.00000050,0.00000497,-0
 .00007216,-0.00001050,-0.00001125,0.00004399,0.00001873,-0.00003564,-0
 .00005132,0.00000950,-0.00003456,0.00000071,-0.00000328,0.00000111,-0.
 00000290,0.00000436,-0.00000387,-0.00000073,-0.00000048,0.00000221,0.0
 0000231,0.00000230,-0.00000472,-0.00000742,0.00000001,-0.00000057,0.00
 000284,-0.00000113,0.00000484,-0.00000738,-0.00000077,0.00000146,-0.00
 000095,0.00000103,-0.00000183,-0.00000250,0.00000062,0.00000636,0.0000
 0071,-0.00000163,-0.00000323,-0.00000429,0.00000152,-0.00000303,0.0000
 0389,0.00000142,-0.00000050,0.00000398,-0.00000526,0.00000994,-0.00003
 479,-0.00041157,-0.00020711,-0.00043081,0.00041490,-0.00080456,0.00025
 184,-0.00170343,0.00042194,0.07773777,-0.09757056,0.30345433,0.0000497
 8,-0.00003175,0.00003876,0.00000360,0.00006092,-0.00012949,0.00020782,
 -0.00033353,0.00166192,-0.00306136,0.00023672,-0.00150737,-0.00067565,
 -0.00000033,0.00041730,0.01294975,0.00611868,-0.01529402,-0.00233554,0
 .00043768,-0.00286901,-0.00077304,0.00025203,-0.00069157,-0.00538087,-
 0.00010212,-0.00185480,0.00019274,-0.00067490,0.00181782,0.00036076,0.
 00015146,-0.00033945,0.00007000,0.00001496,-0.00002415,0.00000704,0.00
 001605,-0.00003566,-0.00000176,0.00001126,-0.00003498,0.00001975,0.000
 00693,-0.00001396,-0.00001960,0.00000804,-0.00002529,-0.00001680,-0.00
 001057,0.00002555,0.00002975,0.00000273,-0.00000176,-0.00007434,-0.000
 00875,0.00000971,-0.00006971,0.00000087,-0.00001670,-0.00144030,-0.000
 06862,0.00002970,0.00035909,0.00003119,-0.00005279,0.00365960,0.000268
 75,0.00073499,-0.00940425,-0.01192563,0.02991173,-0.10078355,-0.038296
 75,0.09543349,0.00000062,-0.00003963,-0.00000551,0.00000004,-0.0000188
 8,0.00000889,-0.00002779,0.00002220,0.00000414,0.00003625,0.00000892,0
 .00009953,-0.00000076,-0.00001097,0.00002065,-0.00344047,-0.00125580,-
 0.00064764,0.00011336,0.00000930,0.00005560,0.00023586,-0.00009927,-0.
 00006187,-0.00012998,0.00002503,0.00004986,-0.00050510,0.00055009,0.00
 008881,0.00055717,0.00031749,-0.00092690,0.00007388,0.00002282,0.00010
 066,-0.00040638,0.00000528,-0.00006904,0.00000334,0.00000051,-0.000001
 36,-0.00000193,-0.00000044,0.00000064,-0.00000150,-0.00000002,-0.00000
 029,-0.00000311,0.00000034,-0.00000181,0.10962357,0.00013574,0.0000519
 4,0.00013414,0.00002670,-0.00052611,-0.00010537,-0.00027320,-0.0016763
 5,-0.00085069,-0.00082897,-0.00031782,0.00039386,0.00087413,0.00057803
 ,-0.00007302,-0.00288055,-0.00028771,0.00550373,0.00077210,0.00392253,
 0.00222450,0.00036092,-0.00038825,-0.00016543,-0.00061058,0.00529147,0
 .00118175,0.00007605,0.00065080,0.00038903,0.00007122,0.00005567,-0.00
 010842,0.00000542,0.00001561,0.00001689,0.00000240,0.00002796,0.000000
 87,-0.00000350,-0.00002122,-0.00001134,0.00000640,0.00000124,-0.000005
 91,-0.00000643,0.00000202,-0.00000756,-0.00000543,-0.00000332,0.000005
 86,0.00000610,-0.00000091,0.00000398,-0.00001036,-0.00001701,-0.000002
 65,-0.00000027,0.00001947,-0.00000038,-0.00014447,-0.00068788,-0.00023
 543,-0.00001559,0.00011593,-0.00000164,0.00079366,-0.00350702,-0.00140
 598,-0.00144786,0.00246066,0.00326487,-0.03840839,-0.06467847,0.092915
 82,-0.00001287,0.00001860,0.00002146,0.00000006,-0.00006918,-0.0000208
 7,0.00004462,-0.00001566,-0.00000408,-0.00008074,0.00001307,-0.0001519
 5,-0.00002107,0.00005054,-0.00010906,-0.00268319,0.00001532,-0.0001780
 5,0.00015308,-0.00019187,-0.00014941,-0.00026178,-0.00018981,-0.000121
 66,-0.00011269,-0.00012694,-0.00008852,0.00048612,-0.00074757,-0.00042
 647,-0.00030221,0.00005747,0.00023367,0.00000799,-0.00052328,-0.000186
 90,-0.00000741,-0.00027455,-0.00010787,0.00000094,-0.00000011,0.000000
 48,-0.00000155,0.00000066,0.00000124,-0.00000176,0.00000145,0.00000057
 ,-0.00000046,0.00000088,-0.00000105,0.04429770,0.06089974,0.00007052,-
 0.00001270,0.00004165,-0.00014066,-0.00005980,-0.00013130,0.00111201,-
 0.00080179,0.00013545,0.00062739,0.00094586,-0.00027528,0.00031360,-0.
 00008113,0.00026353,0.01152336,0.00693954,-0.01461629,-0.00378207,0.00
 192951,-0.00135571,-0.00079522,-0.00029915,0.00018855,-0.00015530,0.00
 131812,0.00188639,-0.00037568,0.00021689,-0.00008909,-0.00007118,-0.00
 009524,0.00025990,-0.00004436,0.00000987,-0.00001788,0.00000063,0.0000
 0296,0.00000478,0.00000689,-0.00000414,-0.00000084,-0.00001201,-0.0000
 0555,0.00001099,0.00001378,-0.00000489,0.00001528,0.00001292,0.0000055
 4,-0.00001307,-0.00001404,0.00000236,-0.00000964,0.00002225,-0.0000009
 2,-0.00000638,-0.00000796,-0.00000240,0.00002059,0.00025102,-0.0002292
 5,-0.00005069,0.00006863,0.00002197,0.00007607,-0.00059974,-0.00148353
 ,-0.00003147,0.00031832,0.00144035,0.00056206,0.09599591,0.09355014,-0
 .27247651,0.00000270,-0.00006760,-0.00000458,-0.00000520,-0.00002297,0
 .00001104,-0.00003677,0.00002774,0.00000980,0.00001252,0.00003633,0.00
 008004,-0.00011409,-0.00002060,-0.00001330,-0.00014463,-0.00109206,0.0
 0087385,0.00034602,-0.00048752,0.00030561,0.00007845,-0.00009804,-0.00
 012188,0.00023668,0.00007863,-0.00004628,0.00044794,-0.00005725,0.0002
 4346,0.00062235,0.00044075,-0.00074210,0.00009595,-0.00018061,-0.00009
 357,0.00001743,-0.00008831,-0.00001879,-0.00000176,0.00000059,-0.00000
 136,0.00000336,0.00000131,-0.00000183,0.00000374,0.00000077,0.00000008
 ,0.00000061,-0.00000076,0.00000284,-0.10590430,-0.10177300,0.28512589\
 \-0.00000220,-0.00000347,0.00000260,-0.00000341,0.00000876,-0.00000164
 ,-0.00000093,-0.00001424,-0.00000026,0.00000183,0.00000631,0.00000572,
 -0.00000071,-0.00000181,-0.00000600,-0.00000421,0.00000834,0.00000180,
 0.00000109,-0.00000089,-0.00000137,0.00001153,-0.00000061,-0.00000603,
 -0.00001609,-0.00000166,0.00001143,0.00000181,0.00000292,-0.00001086,0
 .00002638,-0.00000544,0.00001445,-0.00001690,0.00000341,-0.00000845,0.
 00000173,0.00000225,-0.00000787,0.00000057,-0.00000474,0.00001273,-0.0
 0000433,-0.00000028,-0.00000535,0.00000341,-0.00000243,0.00000734,-0.0
 0000085,0.00000348,-0.00000839,-0.00000035,-0.00000239,0.00000726,-0.0
 0000558,0.00000554,-0.00001365,0.00000461,-0.00000528,0.00000984,-0.00
 000002,-0.00000011,-0.00000634,0.00000319,0.00000311,0.00000563,-0.000
 00418,-0.00000636,0.00000455,0.00000603,0.00000801,-0.00001212,-0.0000
 0946,-0.00000409,-0.00000358,-0.00000093,-0.00000070,0.00000024,-0.000
 00040,0.00000088,-0.00000004,-0.00000078,0.00000259,-0.00000047,-0.000
 00428,-0.00000367,-0.00000109,0.00000265,0.00000091,0.00000064,0.00000
 609,-0.00000012,0.00000345,0.00000273,-0.00000077,-0.00000036,0.000000
 27,0.00000021,0.00000209,0.00000018,-0.00000016,0.00000021,0.00000116,
 -0.00000019,0.00000007,0.00000926,0.00000069,0.00000306,-0.00000251,0.
 00000188,0.00000052,-0.00000190,0.00000032,-0.00000039,0.00000168,0.00
 000012,-0.00000015,-0.00000191,0.00000099,-0.00000195,-0.00000018,-0.0
 0000062,0.00000160,0.00000053,0.00000004,-0.00000147,-0.00000465,-0.00
 000074,0.00000263\\\@
 The archive entry for this job was punched.


 IF YOU GIVE EVERYONE A PIECE OF YOUR MIND,
 PRETTY SOON IT WILL BE ALL GONE.
 Job cpu time:       0 days  1 hours 16 minutes  4.2 seconds.
 Elapsed time:       0 days  0 hours  9 minutes 39.9 seconds.
 File lengths (MBytes):  RWF=    863 Int=      0 D2E=      0 Chk=     16 Scr=      1
 Normal termination of Gaussian 16 at Fri Jun  5 17:19:26 2026.
