 Entering Gaussian System, Link 0=/apl/gaussian/16c02/g16/._.g16
 Initial command:
 /apl/gaussian/16c02/g16/l1.exe "/lwork/users/sm2/679436.ccpbs1/gaussian/Gau-4057968.inp" -scrdir="/lwork/users/sm2/679436.ccpbs1/gaussian/"
 Default CPUs for threads: 48,49,50,51,52,53,54,55,56,57,58,59,60,61,62,63
 Default is to use a total of  16 processors:
                               16 via shared-memory
                                1 via Linda
 Entering Link 1 = /apl/gaussian/16c02/g16/l1.exe PID=   4057969.
  
 Copyright (c) 1988-2021, Gaussian, Inc.  All Rights Reserved.
  
 This is part of the Gaussian(R) 16 program.  It is based on
 the Gaussian(R) 09 system (copyright 2009, Gaussian, Inc.),
 the Gaussian(R) 03 system (copyright 2003, Gaussian, Inc.),
 the Gaussian(R) 98 system (copyright 1998, Gaussian, Inc.),
 the Gaussian(R) 94 system (copyright 1995, Gaussian, Inc.),
 the Gaussian 92(TM) system (copyright 1992, Gaussian, Inc.),
 the Gaussian 90(TM) system (copyright 1990, Gaussian, Inc.),
 the Gaussian 88(TM) system (copyright 1988, Gaussian, Inc.),
 the Gaussian 86(TM) system (copyright 1986, Carnegie Mellon
 University), and the Gaussian 82(TM) system (copyright 1983,
 Carnegie Mellon University). Gaussian is a federally registered
 trademark of Gaussian, Inc.
  
 This software contains proprietary and confidential information,
 including trade secrets, belonging to Gaussian, Inc.
  
 This software is provided under written license and may be
 used, copied, transmitted, or stored only in accord with that
 written license.
  
 The following legend is applicable only to US Government
 contracts under FAR:
  
                    RESTRICTED RIGHTS LEGEND
  
 Use, reproduction and disclosure by the US Government is
 subject to restrictions as set forth in subparagraphs (a)
 and (c) of the Commercial Computer Software - Restricted
 Rights clause in FAR 52.227-19.
  
 Gaussian, Inc.
 340 Quinnipiac St., Bldg. 40, Wallingford CT 06492
  
  
 ---------------------------------------------------------------
 Warning -- This program may not be used in any manner that
 competes with the business of Gaussian, Inc. or will provide
 assistance to any competitor of Gaussian, Inc.  The licensee
 of this program is prohibited from giving any competitor of
 Gaussian, Inc. access to this program.  By using this program,
 the user acknowledges that Gaussian, Inc. is engaged in the
 business of creating and licensing software in the field of
 computational chemistry and represents and warrants to the
 licensee that it is not a competitor of Gaussian, Inc. and that
 it will not use this program in any manner prohibited above.
 ---------------------------------------------------------------
  

 Cite this work as:
 Gaussian 16, Revision C.02,
 M. J. Frisch, G. W. Trucks, H. B. Schlegel, G. E. Scuseria, 
 M. A. Robb, J. R. Cheeseman, G. Scalmani, V. Barone, 
 G. A. Petersson, H. Nakatsuji, X. Li, M. Caricato, A. V. Marenich, 
 J. Bloino, B. G. Janesko, R. Gomperts, B. Mennucci, H. P. Hratchian, 
 J. V. Ortiz, A. F. Izmaylov, J. L. Sonnenberg, D. Williams-Young, 
 F. Ding, F. Lipparini, F. Egidi, J. Goings, B. Peng, A. Petrone, 
 T. Henderson, D. Ranasinghe, V. G. Zakrzewski, J. Gao, N. Rega, 
 G. Zheng, W. Liang, M. Hada, M. Ehara, K. Toyota, R. Fukuda, 
 J. Hasegawa, M. Ishida, T. Nakajima, Y. Honda, O. Kitao, H. Nakai, 
 T. Vreven, K. Throssell, J. A. Montgomery, Jr., J. E. Peralta, 
 F. Ogliaro, M. J. Bearpark, J. J. Heyd, E. N. Brothers, K. N. Kudin, 
 V. N. Staroverov, T. A. Keith, R. Kobayashi, J. Normand, 
 K. Raghavachari, A. P. Rendell, J. C. Burant, S. S. Iyengar, 
 J. Tomasi, M. Cossi, J. M. Millam, M. Klene, C. Adamo, R. Cammi, 
 J. W. Ochterski, R. L. Martin, K. Morokuma, O. Farkas, 
 J. B. Foresman, and D. J. Fox, Gaussian, Inc., Wallingford CT, 2019.
 
 ******************************************
 Gaussian 16:  ES64L-G16RevC.02  7-Dec-2021
                 5-Jun-2026 
 ******************************************
 %chk=CzSi.chk
 %mem=19200MB
 SetSPE:  set environment variable "OMP_PROC_BIND" = "true"
 SetSPE:  set environment variable "OMP_PLACES" = "{48},{49},{50},{51},{52},{53},{54},{55},{56},{57},{58},{59},{60},{61},{62},{63}"
 --------------------------
 #p B3LYP/6-31G(d) opt freq
 --------------------------
 1/18=20,19=15,26=3,38=1/1,3;
 2/9=110,12=2,17=6,18=5,40=1/2;
 3/5=1,6=6,7=1,11=2,25=1,30=1,71=1,74=-5/1,2,3;
 4//1;
 5/5=2,38=5/2;
 6/7=2,8=2,9=2,10=2,28=1/1;
 7//1,2,3,16;
 1/18=20,19=15,26=3/3(2);
 2/9=110/2;
 99//99;
 2/9=110/2;
 3/5=1,6=6,7=1,11=2,25=1,30=1,71=1,74=-5/1,2,3;
 4/5=5,16=3,69=1/1;
 5/5=2,38=5/2;
 7//1,2,3,16;
 1/18=20,19=15,26=3/3(-5);
 2/9=110/2;
 6/7=2,8=2,9=2,10=2,19=2,28=1/1;
 99/9=1/99;
 Leave Link    1 at Fri Jun  5 16:58:59 2026, MaxMem=  2516582400 cpu:               0.7 elap:               0.8
 (Enter /apl/gaussian/16c02/g16/l101.exe)
 ----------------------------------
 CzSi - B3LYP/6-31G(d) optimization
 ----------------------------------
 Symbolic Z-matrix:
 Charge =  0 Multiplicity = 1
 C                    -0.26861   2.69289  -3.90308 
 Si                   -0.25663   2.75322  -2.03537 
 C                    -0.40337   4.51644  -1.43397 
 C                    -1.64664   1.64357  -1.35242 
 C                    -1.61684   0.25407  -1.56998 
 C                    -2.62721  -0.57218  -1.06921 
 C                    -3.68951  -0.02148  -0.34648 
 N                    -4.71948  -0.864     0.16913 
 C                    -6.08935  -0.59367   0.11119 
 C                    -6.81344   0.45943  -0.48757 
 C                    -8.20863   0.45732  -0.39875 
 C                    -8.87832  -0.57155   0.24911 
 C                    -8.164    -1.63323   0.80896 
 C                    -6.75354  -1.65566   0.72972 
 C                    -5.77039  -2.59329   1.16096 
 C                    -5.85089  -3.83402   1.83203 
 C                    -4.68377  -4.52615   2.16318 
 C                    -3.44147  -3.99313   1.84807 
 C                    -3.33567  -2.76859   1.18196 
 C                    -4.51552  -2.08736   0.81329 
 C                    -3.73529   1.35922  -0.12862 
 C                    -2.72125   2.1843   -0.62648 
 C                     1.31099   1.95729  -1.30124 
 C                     1.4283    1.77151   0.08824 
 C                     2.5705    1.18333   0.63934 
 C                     3.61918   0.77586  -0.19033 
 N                     4.78404   0.17136   0.37021 
 C                     4.78559  -0.80935   1.36589 
 C                     3.73292  -1.49201   2.01235 
 C                     4.04287  -2.45704   2.97519 
 C                     5.36296  -2.7585    3.28048 
 C                     6.40506  -2.11004   2.61384 
 C                     6.11775  -1.13273   1.63478 
 C                     6.93972  -0.34208   0.77983 
 C                     8.33883  -0.24322   0.6098 
 C                     8.86875   0.67263  -0.30192 
 C                     8.02618   1.49824  -1.03351 
 C                     6.6384    1.41722  -0.88541 
 C                     6.10123   0.46552   0.00766 
 C                     3.51873   0.96077  -1.57294 
 C                     2.37329   1.54542  -2.12346 
 H                     0.54812   3.29125  -4.31812 
 H                    -1.20951   3.09067  -4.29557 
 H                    -0.15835   1.66697  -4.26735 
 H                     0.44478   5.11416  -1.78172 
 H                    -0.42236   4.56221  -0.34085 
 H                    -1.31924   4.98218  -1.81027 
 H                    -0.80473  -0.20645  -2.13199 
 H                    -2.58529  -1.63632  -1.28927 
 H                    -6.31463   1.25716  -1.0292 
 H                    -8.77482   1.26786  -0.8519 
 H                    -9.96358  -0.5613    0.30855 
 H                    -8.69608  -2.44566   1.29579 
 H                    -6.819    -4.24746   2.1003 
 H                    -4.75079  -5.47837   2.683 
 H                    -2.53765  -4.52863   2.12964 
 H                    -2.35237  -2.35658   0.97658 
 H                    -4.52761   1.80939   0.46503 
 H                    -2.78574   3.25217  -0.42541 
 H                     0.63049   2.08097   0.76291 
 H                     2.63673   1.0897    1.72074 
 H                     2.69314  -1.29811   1.76728 
 H                     3.23804  -2.98301   3.48364 
 H                     5.58907  -3.51249   4.03 
 H                     7.43557  -2.36605   2.84329 
 H                     9.00519  -0.87119   1.19442 
 H                     9.94597   0.74818  -0.42564 
 H                     8.44908   2.22444  -1.72393 
 H                     6.00184   2.09724  -1.44301 
 H                     4.301     0.61591  -2.24522 
 H                     2.32725   1.66088  -3.20488 
 
 ITRead=  0  0  0  0  0  0  0  0  0  0  0  0  0  0  0  0  0  0  0  0
 ITRead=  0  0  0  0  0  0  0  0  0  0  0  0  0  0  0  0  0  0  0  0
 ITRead=  0  0  0  0  0  0  0  0  0  0  0  0  0  0  0  0  0  0  0  0
 ITRead=  0  0  0  0  0  0  0  0  0  0  0
 MicOpt= -1 -1 -1 -1 -1 -1 -1 -1 -1 -1 -1 -1 -1 -1 -1 -1 -1 -1 -1 -1
 MicOpt= -1 -1 -1 -1 -1 -1 -1 -1 -1 -1 -1 -1 -1 -1 -1 -1 -1 -1 -1 -1
 MicOpt= -1 -1 -1 -1 -1 -1 -1 -1 -1 -1 -1 -1 -1 -1 -1 -1 -1 -1 -1 -1
 MicOpt= -1 -1 -1 -1 -1 -1 -1 -1 -1 -1 -1
 NAtoms=     71 NQM=       71 NQMF=       0 NMMI=      0 NMMIF=      0
                NMic=       0 NMicF=      0.
                    Isotopes and Nuclear Properties:
 (Nuclear quadrupole moments (NQMom) in fm**2, nuclear magnetic moments (NMagM)
  in nuclear magnetons)

  Atom         1           2           3           4           5           6           7           8           9          10
 IAtWgt=          12          28          12          12          12          12          12          14          12          12
 AtmWgt=  12.0000000  27.9769284  12.0000000  12.0000000  12.0000000  12.0000000  12.0000000  14.0030740  12.0000000  12.0000000
 NucSpn=           0           0           0           0           0           0           0           2           0           0
 AtZEff=  -0.0000000  -0.0000000  -0.0000000  -0.0000000  -0.0000000  -0.0000000  -0.0000000  -0.0000000  -0.0000000  -0.0000000
 NQMom=    0.0000000   0.0000000   0.0000000   0.0000000   0.0000000   0.0000000   0.0000000   2.0440000   0.0000000   0.0000000
 NMagM=    0.0000000   0.0000000   0.0000000   0.0000000   0.0000000   0.0000000   0.0000000   0.4037610   0.0000000   0.0000000
 AtZNuc=   6.0000000  14.0000000   6.0000000   6.0000000   6.0000000   6.0000000   6.0000000   7.0000000   6.0000000   6.0000000

  Atom        11          12          13          14          15          16          17          18          19          20
 IAtWgt=          12          12          12          12          12          12          12          12          12          12
 AtmWgt=  12.0000000  12.0000000  12.0000000  12.0000000  12.0000000  12.0000000  12.0000000  12.0000000  12.0000000  12.0000000
 NucSpn=           0           0           0           0           0           0           0           0           0           0
 AtZEff=  -0.0000000  -0.0000000  -0.0000000  -0.0000000  -0.0000000  -0.0000000  -0.0000000  -0.0000000  -0.0000000  -0.0000000
 NQMom=    0.0000000   0.0000000   0.0000000   0.0000000   0.0000000   0.0000000   0.0000000   0.0000000   0.0000000   0.0000000
 NMagM=    0.0000000   0.0000000   0.0000000   0.0000000   0.0000000   0.0000000   0.0000000   0.0000000   0.0000000   0.0000000
 AtZNuc=   6.0000000   6.0000000   6.0000000   6.0000000   6.0000000   6.0000000   6.0000000   6.0000000   6.0000000   6.0000000

  Atom        21          22          23          24          25          26          27          28          29          30
 IAtWgt=          12          12          12          12          12          12          14          12          12          12
 AtmWgt=  12.0000000  12.0000000  12.0000000  12.0000000  12.0000000  12.0000000  14.0030740  12.0000000  12.0000000  12.0000000
 NucSpn=           0           0           0           0           0           0           2           0           0           0
 AtZEff=  -0.0000000  -0.0000000  -0.0000000  -0.0000000  -0.0000000  -0.0000000  -0.0000000  -0.0000000  -0.0000000  -0.0000000
 NQMom=    0.0000000   0.0000000   0.0000000   0.0000000   0.0000000   0.0000000   2.0440000   0.0000000   0.0000000   0.0000000
 NMagM=    0.0000000   0.0000000   0.0000000   0.0000000   0.0000000   0.0000000   0.4037610   0.0000000   0.0000000   0.0000000
 AtZNuc=   6.0000000   6.0000000   6.0000000   6.0000000   6.0000000   6.0000000   7.0000000   6.0000000   6.0000000   6.0000000

  Atom        31          32          33          34          35          36          37          38          39          40
 IAtWgt=          12          12          12          12          12          12          12          12          12          12
 AtmWgt=  12.0000000  12.0000000  12.0000000  12.0000000  12.0000000  12.0000000  12.0000000  12.0000000  12.0000000  12.0000000
 NucSpn=           0           0           0           0           0           0           0           0           0           0
 AtZEff=  -0.0000000  -0.0000000  -0.0000000  -0.0000000  -0.0000000  -0.0000000  -0.0000000  -0.0000000  -0.0000000  -0.0000000
 NQMom=    0.0000000   0.0000000   0.0000000   0.0000000   0.0000000   0.0000000   0.0000000   0.0000000   0.0000000   0.0000000
 NMagM=    0.0000000   0.0000000   0.0000000   0.0000000   0.0000000   0.0000000   0.0000000   0.0000000   0.0000000   0.0000000
 AtZNuc=   6.0000000   6.0000000   6.0000000   6.0000000   6.0000000   6.0000000   6.0000000   6.0000000   6.0000000   6.0000000

  Atom        41          42          43          44          45          46          47          48          49          50
 IAtWgt=          12           1           1           1           1           1           1           1           1           1
 AtmWgt=  12.0000000   1.0078250   1.0078250   1.0078250   1.0078250   1.0078250   1.0078250   1.0078250   1.0078250   1.0078250
 NucSpn=           0           1           1           1           1           1           1           1           1           1
 AtZEff=  -0.0000000  -0.0000000  -0.0000000  -0.0000000  -0.0000000  -0.0000000  -0.0000000  -0.0000000  -0.0000000  -0.0000000
 NQMom=    0.0000000   0.0000000   0.0000000   0.0000000   0.0000000   0.0000000   0.0000000   0.0000000   0.0000000   0.0000000
 NMagM=    0.0000000   2.7928460   2.7928460   2.7928460   2.7928460   2.7928460   2.7928460   2.7928460   2.7928460   2.7928460
 AtZNuc=   6.0000000   1.0000000   1.0000000   1.0000000   1.0000000   1.0000000   1.0000000   1.0000000   1.0000000   1.0000000

  Atom        51          52          53          54          55          56          57          58          59          60
 IAtWgt=           1           1           1           1           1           1           1           1           1           1
 AtmWgt=   1.0078250   1.0078250   1.0078250   1.0078250   1.0078250   1.0078250   1.0078250   1.0078250   1.0078250   1.0078250
 NucSpn=           1           1           1           1           1           1           1           1           1           1
 AtZEff=  -0.0000000  -0.0000000  -0.0000000  -0.0000000  -0.0000000  -0.0000000  -0.0000000  -0.0000000  -0.0000000  -0.0000000
 NQMom=    0.0000000   0.0000000   0.0000000   0.0000000   0.0000000   0.0000000   0.0000000   0.0000000   0.0000000   0.0000000
 NMagM=    2.7928460   2.7928460   2.7928460   2.7928460   2.7928460   2.7928460   2.7928460   2.7928460   2.7928460   2.7928460
 AtZNuc=   1.0000000   1.0000000   1.0000000   1.0000000   1.0000000   1.0000000   1.0000000   1.0000000   1.0000000   1.0000000

  Atom        61          62          63          64          65          66          67          68          69          70
 IAtWgt=           1           1           1           1           1           1           1           1           1           1
 AtmWgt=   1.0078250   1.0078250   1.0078250   1.0078250   1.0078250   1.0078250   1.0078250   1.0078250   1.0078250   1.0078250
 NucSpn=           1           1           1           1           1           1           1           1           1           1
 AtZEff=  -0.0000000  -0.0000000  -0.0000000  -0.0000000  -0.0000000  -0.0000000  -0.0000000  -0.0000000  -0.0000000  -0.0000000
 NQMom=    0.0000000   0.0000000   0.0000000   0.0000000   0.0000000   0.0000000   0.0000000   0.0000000   0.0000000   0.0000000
 NMagM=    2.7928460   2.7928460   2.7928460   2.7928460   2.7928460   2.7928460   2.7928460   2.7928460   2.7928460   2.7928460
 AtZNuc=   1.0000000   1.0000000   1.0000000   1.0000000   1.0000000   1.0000000   1.0000000   1.0000000   1.0000000   1.0000000

  Atom        71
 IAtWgt=           1
 AtmWgt=   1.0078250
 NucSpn=           1
 AtZEff=  -0.0000000
 NQMom=    0.0000000
 NMagM=    2.7928460
 AtZNuc=   1.0000000
 Leave Link  101 at Fri Jun  5 16:59:00 2026, MaxMem=  2516582400 cpu:               0.1 elap:               0.2
 (Enter /apl/gaussian/16c02/g16/l103.exe)

 GradGradGradGradGradGradGradGradGradGradGradGradGradGradGradGradGradGrad
 Berny optimization.
 Initialization pass.
                           ----------------------------
                           !    Initial Parameters    !
                           ! (Angstroms and Degrees)  !
 --------------------------                            --------------------------
 ! Name  Definition              Value          Derivative Info.                !
 --------------------------------------------------------------------------------
 ! R1    R(1,2)                  1.8687         estimate D2E/DX2                !
 ! R2    R(1,42)                 1.0942         estimate D2E/DX2                !
 ! R3    R(1,43)                 1.0943         estimate D2E/DX2                !
 ! R4    R(1,44)                 1.0942         estimate D2E/DX2                !
 ! R5    R(2,3)                  1.8687         estimate D2E/DX2                !
 ! R6    R(2,4)                  1.9052         estimate D2E/DX2                !
 ! R7    R(2,23)                 1.9052         estimate D2E/DX2                !
 ! R8    R(3,45)                 1.0943         estimate D2E/DX2                !
 ! R9    R(3,46)                 1.0942         estimate D2E/DX2                !
 ! R10   R(3,47)                 1.0942         estimate D2E/DX2                !
 ! R11   R(4,5)                  1.4067         estimate D2E/DX2                !
 ! R12   R(4,22)                 1.4051         estimate D2E/DX2                !
 ! R13   R(5,6)                  1.398          estimate D2E/DX2                !
 ! R14   R(5,48)                 1.0897         estimate D2E/DX2                !
 ! R15   R(6,7)                  1.3979         estimate D2E/DX2                !
 ! R16   R(6,49)                 1.0875         estimate D2E/DX2                !
 ! R17   R(7,8)                  1.4271         estimate D2E/DX2                !
 ! R18   R(7,21)                 1.3985         estimate D2E/DX2                !
 ! R19   R(8,9)                  1.3975         estimate D2E/DX2                !
 ! R20   R(8,20)                 1.3976         estimate D2E/DX2                !
 ! R21   R(9,10)                 1.4113         estimate D2E/DX2                !
 ! R22   R(9,14)                 1.397          estimate D2E/DX2                !
 ! R23   R(10,11)                1.398          estimate D2E/DX2                !
 ! R24   R(10,50)                1.0856         estimate D2E/DX2                !
 ! R25   R(11,12)                1.3881         estimate D2E/DX2                !
 ! R26   R(11,51)                1.0876         estimate D2E/DX2                !
 ! R27   R(12,13)                1.3967         estimate D2E/DX2                !
 ! R28   R(12,52)                1.0869         estimate D2E/DX2                !
 ! R29   R(13,14)                1.4129         estimate D2E/DX2                !
 ! R30   R(13,53)                1.0864         estimate D2E/DX2                !
 ! R31   R(14,15)                1.4254         estimate D2E/DX2                !
 ! R32   R(15,16)                1.4129         estimate D2E/DX2                !
 ! R33   R(15,20)                1.397          estimate D2E/DX2                !
 ! R34   R(16,17)                1.3967         estimate D2E/DX2                !
 ! R35   R(16,54)                1.0863         estimate D2E/DX2                !
 ! R36   R(17,18)                1.3881         estimate D2E/DX2                !
 ! R37   R(17,55)                1.0869         estimate D2E/DX2                !
 ! R38   R(18,19)                1.398          estimate D2E/DX2                !
 ! R39   R(18,56)                1.0876         estimate D2E/DX2                !
 ! R40   R(19,20)                1.4114         estimate D2E/DX2                !
 ! R41   R(19,57)                1.0857         estimate D2E/DX2                !
 ! R42   R(21,22)                1.3989         estimate D2E/DX2                !
 ! R43   R(21,58)                1.0876         estimate D2E/DX2                !
 ! R44   R(22,59)                1.0885         estimate D2E/DX2                !
 ! R45   R(23,24)                1.4067         estimate D2E/DX2                !
 ! R46   R(23,41)                1.4051         estimate D2E/DX2                !
 ! R47   R(24,25)                1.398          estimate D2E/DX2                !
 ! R48   R(24,60)                1.0897         estimate D2E/DX2                !
 ! R49   R(25,26)                1.3979         estimate D2E/DX2                !
 ! R50   R(25,61)                1.0875         estimate D2E/DX2                !
 ! R51   R(26,27)                1.4271         estimate D2E/DX2                !
 ! R52   R(26,40)                1.3985         estimate D2E/DX2                !
 ! R53   R(27,28)                1.3976         estimate D2E/DX2                !
 ! R54   R(27,39)                1.3975         estimate D2E/DX2                !
 ! R55   R(28,29)                1.4114         estimate D2E/DX2                !
 ! R56   R(28,33)                1.397          estimate D2E/DX2                !
 ! R57   R(29,30)                1.398          estimate D2E/DX2                !
 ! R58   R(29,62)                1.0857         estimate D2E/DX2                !
 ! R59   R(30,31)                1.3881         estimate D2E/DX2                !
 ! R60   R(30,63)                1.0876         estimate D2E/DX2                !
 ! R61   R(31,32)                1.3967         estimate D2E/DX2                !
 ! R62   R(31,64)                1.0869         estimate D2E/DX2                !
 ! R63   R(32,33)                1.4129         estimate D2E/DX2                !
 ! R64   R(32,65)                1.0863         estimate D2E/DX2                !
 ! R65   R(33,34)                1.4254         estimate D2E/DX2                !
 ! R66   R(34,35)                1.4129         estimate D2E/DX2                !
 ! R67   R(34,39)                1.397          estimate D2E/DX2                !
 ! R68   R(35,36)                1.3967         estimate D2E/DX2                !
 ! R69   R(35,66)                1.0863         estimate D2E/DX2                !
 ! R70   R(36,37)                1.3881         estimate D2E/DX2                !
 ! R71   R(36,67)                1.0869         estimate D2E/DX2                !
 ! R72   R(37,38)                1.398          estimate D2E/DX2                !
 ! R73   R(37,68)                1.0876         estimate D2E/DX2                !
 ! R74   R(38,39)                1.4113         estimate D2E/DX2                !
 ! R75   R(38,69)                1.0856         estimate D2E/DX2                !
 ! R76   R(40,41)                1.3989         estimate D2E/DX2                !
 ! R77   R(40,70)                1.0876         estimate D2E/DX2                !
 ! R78   R(41,71)                1.0885         estimate D2E/DX2                !
 ! A1    A(2,1,42)             110.8947         estimate D2E/DX2                !
 ! A2    A(2,1,43)             110.624          estimate D2E/DX2                !
 ! A3    A(2,1,44)             111.2436         estimate D2E/DX2                !
 ! A4    A(42,1,43)            107.875          estimate D2E/DX2                !
 ! A5    A(42,1,44)            108.1325         estimate D2E/DX2                !
 ! A6    A(43,1,44)            107.9414         estimate D2E/DX2                !
 ! A7    A(1,2,3)              110.5856         estimate D2E/DX2                !
 ! A8    A(1,2,4)              109.5599         estimate D2E/DX2                !
 ! A9    A(1,2,23)             112.1418         estimate D2E/DX2                !
 ! A10   A(3,2,4)              112.1411         estimate D2E/DX2                !
 ! A11   A(3,2,23)             109.5589         estimate D2E/DX2                !
 ! A12   A(4,2,23)             102.6419         estimate D2E/DX2                !
 ! A13   A(2,3,45)             110.6237         estimate D2E/DX2                !
 ! A14   A(2,3,46)             111.2433         estimate D2E/DX2                !
 ! A15   A(2,3,47)             110.8948         estimate D2E/DX2                !
 ! A16   A(45,3,46)            107.9415         estimate D2E/DX2                !
 ! A17   A(45,3,47)            107.8752         estimate D2E/DX2                !
 ! A18   A(46,3,47)            108.1326         estimate D2E/DX2                !
 ! A19   A(2,4,5)              120.291          estimate D2E/DX2                !
 ! A20   A(2,4,22)             121.2688         estimate D2E/DX2                !
 ! A21   A(5,4,22)             118.4401         estimate D2E/DX2                !
 ! A22   A(4,5,6)              120.8691         estimate D2E/DX2                !
 ! A23   A(4,5,48)             120.8626         estimate D2E/DX2                !
 ! A24   A(6,5,48)             118.2683         estimate D2E/DX2                !
 ! A25   A(5,6,7)              120.1063         estimate D2E/DX2                !
 ! A26   A(5,6,49)             118.5554         estimate D2E/DX2                !
 ! A27   A(7,6,49)             121.293          estimate D2E/DX2                !
 ! A28   A(6,7,8)              120.1786         estimate D2E/DX2                !
 ! A29   A(6,7,21)             119.6261         estimate D2E/DX2                !
 ! A30   A(8,7,21)             120.1952         estimate D2E/DX2                !
 ! A31   A(7,8,9)              125.3308         estimate D2E/DX2                !
 ! A32   A(7,8,20)             125.3099         estimate D2E/DX2                !
 ! A33   A(9,8,20)             109.3592         estimate D2E/DX2                !
 ! A34   A(8,9,10)             131.67           estimate D2E/DX2                !
 ! A35   A(8,9,14)             107.4966         estimate D2E/DX2                !
 ! A36   A(10,9,14)            120.7412         estimate D2E/DX2                !
 ! A37   A(9,10,11)            118.9425         estimate D2E/DX2                !
 ! A38   A(9,10,50)            121.6172         estimate D2E/DX2                !
 ! A39   A(11,10,50)           119.4299         estimate D2E/DX2                !
 ! A40   A(10,11,12)           120.8143         estimate D2E/DX2                !
 ! A41   A(10,11,51)           119.4675         estimate D2E/DX2                !
 ! A42   A(12,11,51)           119.7155         estimate D2E/DX2                !
 ! A43   A(11,12,13)           120.2484         estimate D2E/DX2                !
 ! A44   A(11,12,52)           120.0167         estimate D2E/DX2                !
 ! A45   A(13,12,52)           119.7277         estimate D2E/DX2                !
 ! A46   A(12,13,14)           120.0092         estimate D2E/DX2                !
 ! A47   A(12,13,53)           119.8414         estimate D2E/DX2                !
 ! A48   A(14,13,53)           120.1464         estimate D2E/DX2                !
 ! A49   A(9,14,13)            119.1703         estimate D2E/DX2                !
 ! A50   A(9,14,15)            107.8235         estimate D2E/DX2                !
 ! A51   A(13,14,15)           133.0038         estimate D2E/DX2                !
 ! A52   A(14,15,16)           133.005          estimate D2E/DX2                !
 ! A53   A(14,15,20)           107.8219         estimate D2E/DX2                !
 ! A54   A(16,15,20)           119.171          estimate D2E/DX2                !
 ! A55   A(15,16,17)           120.0103         estimate D2E/DX2                !
 ! A56   A(15,16,54)           120.1507         estimate D2E/DX2                !
 ! A57   A(17,16,54)           119.8363         estimate D2E/DX2                !
 ! A58   A(16,17,18)           120.2483         estimate D2E/DX2                !
 ! A59   A(16,17,55)           119.7343         estimate D2E/DX2                !
 ! A60   A(18,17,55)           120.0108         estimate D2E/DX2                !
 ! A61   A(17,18,19)           120.8143         estimate D2E/DX2                !
 ! A62   A(17,18,56)           119.7295         estimate D2E/DX2                !
 ! A63   A(19,18,56)           119.4539         estimate D2E/DX2                !
 ! A64   A(18,19,20)           118.945          estimate D2E/DX2                !
 ! A65   A(18,19,57)           119.4111         estimate D2E/DX2                !
 ! A66   A(20,19,57)           121.6349         estimate D2E/DX2                !
 ! A67   A(8,20,15)            107.4955         estimate D2E/DX2                !
 ! A68   A(8,20,19)            131.6746         estimate D2E/DX2                !
 ! A69   A(15,20,19)           120.7376         estimate D2E/DX2                !
 ! A70   A(7,21,22)            120.2067         estimate D2E/DX2                !
 ! A71   A(7,21,58)            121.1657         estimate D2E/DX2                !
 ! A72   A(22,21,58)           118.5693         estimate D2E/DX2                !
 ! A73   A(4,22,21)            120.7503         estimate D2E/DX2                !
 ! A74   A(4,22,59)            121.2174         estimate D2E/DX2                !
 ! A75   A(21,22,59)           118.0292         estimate D2E/DX2                !
 ! A76   A(2,23,24)            120.2901         estimate D2E/DX2                !
 ! A77   A(2,23,41)            121.2695         estimate D2E/DX2                !
 ! A78   A(24,23,41)           118.4402         estimate D2E/DX2                !
 ! A79   A(23,24,25)           120.869          estimate D2E/DX2                !
 ! A80   A(23,24,60)           120.8626         estimate D2E/DX2                !
 ! A81   A(25,24,60)           118.2683         estimate D2E/DX2                !
 ! A82   A(24,25,26)           120.1064         estimate D2E/DX2                !
 ! A83   A(24,25,61)           118.5553         estimate D2E/DX2                !
 ! A84   A(26,25,61)           121.2929         estimate D2E/DX2                !
 ! A85   A(25,26,27)           120.1784         estimate D2E/DX2                !
 ! A86   A(25,26,40)           119.6259         estimate D2E/DX2                !
 ! A87   A(27,26,40)           120.1955         estimate D2E/DX2                !
 ! A88   A(26,27,28)           125.3097         estimate D2E/DX2                !
 ! A89   A(26,27,39)           125.3309         estimate D2E/DX2                !
 ! A90   A(28,27,39)           109.3593         estimate D2E/DX2                !
 ! A91   A(27,28,29)           131.6748         estimate D2E/DX2                !
 ! A92   A(27,28,33)           107.4953         estimate D2E/DX2                !
 ! A93   A(29,28,33)           120.7375         estimate D2E/DX2                !
 ! A94   A(28,29,30)           118.9452         estimate D2E/DX2                !
 ! A95   A(28,29,62)           121.6348         estimate D2E/DX2                !
 ! A96   A(30,29,62)           119.411          estimate D2E/DX2                !
 ! A97   A(29,30,31)           120.8141         estimate D2E/DX2                !
 ! A98   A(29,30,63)           119.4541         estimate D2E/DX2                !
 ! A99   A(31,30,63)           119.7295         estimate D2E/DX2                !
 ! A100  A(30,31,32)           120.2484         estimate D2E/DX2                !
 ! A101  A(30,31,64)           120.0107         estimate D2E/DX2                !
 ! A102  A(32,31,64)           119.7343         estimate D2E/DX2                !
 ! A103  A(31,32,33)           120.0104         estimate D2E/DX2                !
 ! A104  A(31,32,65)           119.8363         estimate D2E/DX2                !
 ! A105  A(33,32,65)           120.1506         estimate D2E/DX2                !
 ! A106  A(28,33,32)           119.1709         estimate D2E/DX2                !
 ! A107  A(28,33,34)           107.822          estimate D2E/DX2                !
 ! A108  A(32,33,34)           133.0049         estimate D2E/DX2                !
 ! A109  A(33,34,35)           133.0037         estimate D2E/DX2                !
 ! A110  A(33,34,39)           107.8235         estimate D2E/DX2                !
 ! A111  A(35,34,39)           119.1704         estimate D2E/DX2                !
 ! A112  A(34,35,36)           120.0092         estimate D2E/DX2                !
 ! A113  A(34,35,66)           120.1464         estimate D2E/DX2                !
 ! A114  A(36,35,66)           119.8414         estimate D2E/DX2                !
 ! A115  A(35,36,37)           120.2485         estimate D2E/DX2                !
 ! A116  A(35,36,67)           119.7277         estimate D2E/DX2                !
 ! A117  A(37,36,67)           120.0167         estimate D2E/DX2                !
 ! A118  A(36,37,38)           120.8142         estimate D2E/DX2                !
 ! A119  A(36,37,68)           119.7155         estimate D2E/DX2                !
 ! A120  A(38,37,68)           119.4677         estimate D2E/DX2                !
 ! A121  A(37,38,39)           118.9427         estimate D2E/DX2                !
 ! A122  A(37,38,69)           119.4299         estimate D2E/DX2                !
 ! A123  A(39,38,69)           121.6171         estimate D2E/DX2                !
 ! A124  A(27,39,34)           107.4966         estimate D2E/DX2                !
 ! A125  A(27,39,38)           131.6702         estimate D2E/DX2                !
 ! A126  A(34,39,38)           120.7409         estimate D2E/DX2                !
 ! A127  A(26,40,41)           120.2068         estimate D2E/DX2                !
 ! A128  A(26,40,70)           121.1658         estimate D2E/DX2                !
 ! A129  A(41,40,70)           118.5692         estimate D2E/DX2                !
 ! A130  A(23,41,40)           120.7503         estimate D2E/DX2                !
 ! A131  A(23,41,71)           121.2174         estimate D2E/DX2                !
 ! A132  A(40,41,71)           118.0292         estimate D2E/DX2                !
 ! D1    D(42,1,2,3)            58.2141         estimate D2E/DX2                !
 ! D2    D(42,1,2,4)          -177.6819         estimate D2E/DX2                !
 ! D3    D(42,1,2,23)          -64.3955         estimate D2E/DX2                !
 ! D4    D(43,1,2,3)           -61.4371         estimate D2E/DX2                !
 ! D5    D(43,1,2,4)            62.6669         estimate D2E/DX2                !
 ! D6    D(43,1,2,23)          175.9532         estimate D2E/DX2                !
 ! D7    D(44,1,2,3)           178.5998         estimate D2E/DX2                !
 ! D8    D(44,1,2,4)           -57.2962         estimate D2E/DX2                !
 ! D9    D(44,1,2,23)           55.9901         estimate D2E/DX2                !
 ! D10   D(1,2,3,45)           -61.4416         estimate D2E/DX2                !
 ! D11   D(1,2,3,46)           178.5956         estimate D2E/DX2                !
 ! D12   D(1,2,3,47)            58.2099         estimate D2E/DX2                !
 ! D13   D(4,2,3,45)           175.9479         estimate D2E/DX2                !
 ! D14   D(4,2,3,46)            55.9851         estimate D2E/DX2                !
 ! D15   D(4,2,3,47)           -64.4006         estimate D2E/DX2                !
 ! D16   D(23,2,3,45)           62.6626         estimate D2E/DX2                !
 ! D17   D(23,2,3,46)          -57.3002         estimate D2E/DX2                !
 ! D18   D(23,2,3,47)         -177.6859         estimate D2E/DX2                !
 ! D19   D(1,2,4,5)             64.1162         estimate D2E/DX2                !
 ! D20   D(1,2,4,22)          -115.7675         estimate D2E/DX2                !
 ! D21   D(3,2,4,5)           -172.694          estimate D2E/DX2                !
 ! D22   D(3,2,4,22)             7.4223         estimate D2E/DX2                !
 ! D23   D(23,2,4,5)           -55.1989         estimate D2E/DX2                !
 ! D24   D(23,2,4,22)          124.9174         estimate D2E/DX2                !
 ! D25   D(1,2,23,24)         -172.7235         estimate D2E/DX2                !
 ! D26   D(1,2,23,41)            7.3922         estimate D2E/DX2                !
 ! D27   D(3,2,23,24)           64.087          estimate D2E/DX2                !
 ! D28   D(3,2,23,41)         -115.7974         estimate D2E/DX2                !
 ! D29   D(4,2,23,24)          -55.2268         estimate D2E/DX2                !
 ! D30   D(4,2,23,41)          124.8888         estimate D2E/DX2                !
 ! D31   D(2,4,5,6)            179.7091         estimate D2E/DX2                !
 ! D32   D(2,4,5,48)            -0.1963         estimate D2E/DX2                !
 ! D33   D(22,4,5,6)            -0.4039         estimate D2E/DX2                !
 ! D34   D(22,4,5,48)          179.6907         estimate D2E/DX2                !
 ! D35   D(2,4,22,21)         -179.926          estimate D2E/DX2                !
 ! D36   D(2,4,22,59)           -0.5731         estimate D2E/DX2                !
 ! D37   D(5,4,22,21)            0.1882         estimate D2E/DX2                !
 ! D38   D(5,4,22,59)          179.5411         estimate D2E/DX2                !
 ! D39   D(4,5,6,7)              0.2962         estimate D2E/DX2                !
 ! D40   D(4,5,6,49)           177.8809         estimate D2E/DX2                !
 ! D41   D(48,5,6,7)          -179.7959         estimate D2E/DX2                !
 ! D42   D(48,5,6,49)           -2.2113         estimate D2E/DX2                !
 ! D43   D(5,6,7,8)           -179.7972         estimate D2E/DX2                !
 ! D44   D(5,6,7,21)             0.0345         estimate D2E/DX2                !
 ! D45   D(49,6,7,8)             2.6856         estimate D2E/DX2                !
 ! D46   D(49,6,7,21)         -177.4827         estimate D2E/DX2                !
 ! D47   D(6,7,8,9)           -136.1949         estimate D2E/DX2                !
 ! D48   D(6,7,8,20)            43.9347         estimate D2E/DX2                !
 ! D49   D(21,7,8,9)            43.9743         estimate D2E/DX2                !
 ! D50   D(21,7,8,20)         -135.8961         estimate D2E/DX2                !
 ! D51   D(6,7,21,22)           -0.2484         estimate D2E/DX2                !
 ! D52   D(6,7,21,58)         -177.4308         estimate D2E/DX2                !
 ! D53   D(8,7,21,22)          179.5833         estimate D2E/DX2                !
 ! D54   D(8,7,21,58)            2.4009         estimate D2E/DX2                !
 ! D55   D(7,8,9,10)             3.9006         estimate D2E/DX2                !
 ! D56   D(7,8,9,14)          -179.6708         estimate D2E/DX2                !
 ! D57   D(20,8,9,10)         -176.2115         estimate D2E/DX2                !
 ! D58   D(20,8,9,14)            0.2171         estimate D2E/DX2                !
 ! D59   D(7,8,20,15)         -179.9587         estimate D2E/DX2                !
 ! D60   D(7,8,20,19)            3.6141         estimate D2E/DX2                !
 ! D61   D(9,8,20,15)            0.1534         estimate D2E/DX2                !
 ! D62   D(9,8,20,19)         -176.2739         estimate D2E/DX2                !
 ! D63   D(8,9,10,11)          178.9956         estimate D2E/DX2                !
 ! D64   D(8,9,10,50)            0.1761         estimate D2E/DX2                !
 ! D65   D(14,9,10,11)           2.9592         estimate D2E/DX2                !
 ! D66   D(14,9,10,50)        -175.8603         estimate D2E/DX2                !
 ! D67   D(8,9,14,13)          179.992          estimate D2E/DX2                !
 ! D68   D(8,9,14,15)           -0.4957         estimate D2E/DX2                !
 ! D69   D(10,9,14,13)          -3.1114         estimate D2E/DX2                !
 ! D70   D(10,9,14,15)         176.4009         estimate D2E/DX2                !
 ! D71   D(9,10,11,12)          -0.963          estimate D2E/DX2                !
 ! D72   D(9,10,11,51)         179.6323         estimate D2E/DX2                !
 ! D73   D(50,10,11,12)        177.8828         estimate D2E/DX2                !
 ! D74   D(50,10,11,51)         -1.5218         estimate D2E/DX2                !
 ! D75   D(10,11,12,13)         -0.8358         estimate D2E/DX2                !
 ! D76   D(10,11,12,52)       -179.861          estimate D2E/DX2                !
 ! D77   D(51,11,12,13)        178.5674         estimate D2E/DX2                !
 ! D78   D(51,11,12,52)         -0.4579         estimate D2E/DX2                !
 ! D79   D(11,12,13,14)          0.6805         estimate D2E/DX2                !
 ! D80   D(11,12,13,53)       -178.6876         estimate D2E/DX2                !
 ! D81   D(52,12,13,14)        179.7086         estimate D2E/DX2                !
 ! D82   D(52,12,13,53)          0.3405         estimate D2E/DX2                !
 ! D83   D(12,13,14,9)           1.2813         estimate D2E/DX2                !
 ! D84   D(12,13,14,15)       -178.0838         estimate D2E/DX2                !
 ! D85   D(53,13,14,9)        -179.3525         estimate D2E/DX2                !
 ! D86   D(53,13,14,15)          1.2823         estimate D2E/DX2                !
 ! D87   D(9,14,15,16)        -179.9678         estimate D2E/DX2                !
 ! D88   D(9,14,15,20)           0.5939         estimate D2E/DX2                !
 ! D89   D(13,14,15,16)         -0.5501         estimate D2E/DX2                !
 ! D90   D(13,14,15,20)       -179.9884         estimate D2E/DX2                !
 ! D91   D(14,15,16,17)       -178.1286         estimate D2E/DX2                !
 ! D92   D(14,15,16,54)          1.2762         estimate D2E/DX2                !
 ! D93   D(20,15,16,17)          1.259          estimate D2E/DX2                !
 ! D94   D(20,15,16,54)       -179.3362         estimate D2E/DX2                !
 ! D95   D(14,15,20,8)          -0.457          estimate D2E/DX2                !
 ! D96   D(14,15,20,19)        176.4388         estimate D2E/DX2                !
 ! D97   D(16,15,20,8)        -179.9865         estimate D2E/DX2                !
 ! D98   D(16,15,20,19)         -3.0908         estimate D2E/DX2                !
 ! D99   D(15,16,17,18)          0.6829         estimate D2E/DX2                !
 ! D100  D(15,16,17,55)        179.7541         estimate D2E/DX2                !
 ! D101  D(54,16,17,18)       -178.7237         estimate D2E/DX2                !
 ! D102  D(54,16,17,55)          0.3475         estimate D2E/DX2                !
 ! D103  D(16,17,18,19)         -0.8159         estimate D2E/DX2                !
 ! D104  D(16,17,18,56)        178.637          estimate D2E/DX2                !
 ! D105  D(55,17,18,19)       -179.8845         estimate D2E/DX2                !
 ! D106  D(55,17,18,56)         -0.4316         estimate D2E/DX2                !
 ! D107  D(17,18,19,20)         -0.9846         estimate D2E/DX2                !
 ! D108  D(17,18,19,57)        177.9398         estimate D2E/DX2                !
 ! D109  D(56,18,19,20)        179.5609         estimate D2E/DX2                !
 ! D110  D(56,18,19,57)         -1.5146         estimate D2E/DX2                !
 ! D111  D(18,19,20,8)         178.9954         estimate D2E/DX2                !
 ! D112  D(18,19,20,15)          2.9603         estimate D2E/DX2                !
 ! D113  D(57,19,20,8)           0.0959         estimate D2E/DX2                !
 ! D114  D(57,19,20,15)       -175.9392         estimate D2E/DX2                !
 ! D115  D(7,21,22,4)            0.1355         estimate D2E/DX2                !
 ! D116  D(7,21,22,59)        -179.2376         estimate D2E/DX2                !
 ! D117  D(58,21,22,4)         177.3903         estimate D2E/DX2                !
 ! D118  D(58,21,22,59)         -1.9828         estimate D2E/DX2                !
 ! D119  D(2,23,24,25)         179.7101         estimate D2E/DX2                !
 ! D120  D(2,23,24,60)          -0.1959         estimate D2E/DX2                !
 ! D121  D(41,23,24,25)         -0.4022         estimate D2E/DX2                !
 ! D122  D(41,23,24,60)        179.6917         estimate D2E/DX2                !
 ! D123  D(2,23,41,40)        -179.9264         estimate D2E/DX2                !
 ! D124  D(2,23,41,71)          -0.5737         estimate D2E/DX2                !
 ! D125  D(24,23,41,40)          0.1871         estimate D2E/DX2                !
 ! D126  D(24,23,41,71)        179.5398         estimate D2E/DX2                !
 ! D127  D(23,24,25,26)          0.2954         estimate D2E/DX2                !
 ! D128  D(23,24,25,61)        177.8796         estimate D2E/DX2                !
 ! D129  D(60,24,25,26)       -179.7962         estimate D2E/DX2                !
 ! D130  D(60,24,25,61)         -2.212          estimate D2E/DX2                !
 ! D131  D(24,25,26,27)       -179.7989         estimate D2E/DX2                !
 ! D132  D(24,25,26,40)          0.0339         estimate D2E/DX2                !
 ! D133  D(61,25,26,27)          2.6844         estimate D2E/DX2                !
 ! D134  D(61,25,26,40)       -177.4828         estimate D2E/DX2                !
 ! D135  D(25,26,27,28)         43.9335         estimate D2E/DX2                !
 ! D136  D(25,26,27,39)       -136.1966         estimate D2E/DX2                !
 ! D137  D(40,26,27,28)       -135.8984         estimate D2E/DX2                !
 ! D138  D(40,26,27,39)         43.9716         estimate D2E/DX2                !
 ! D139  D(25,26,40,41)         -0.2473         estimate D2E/DX2                !
 ! D140  D(25,26,40,70)       -177.431          estimate D2E/DX2                !
 ! D141  D(27,26,40,41)        179.5855         estimate D2E/DX2                !
 ! D142  D(27,26,40,70)          2.4018         estimate D2E/DX2                !
 ! D143  D(26,27,28,29)          3.6151         estimate D2E/DX2                !
 ! D144  D(26,27,28,33)       -179.9574         estimate D2E/DX2                !
 ! D145  D(39,27,28,29)       -176.2725         estimate D2E/DX2                !
 ! D146  D(39,27,28,33)          0.155          estimate D2E/DX2                !
 ! D147  D(26,27,39,34)       -179.6716         estimate D2E/DX2                !
 ! D148  D(26,27,39,38)          3.8995         estimate D2E/DX2                !
 ! D149  D(28,27,39,34)          0.2159         estimate D2E/DX2                !
 ! D150  D(28,27,39,38)       -176.213          estimate D2E/DX2                !
 ! D151  D(27,28,29,30)        178.9957         estimate D2E/DX2                !
 ! D152  D(27,28,29,62)          0.0964         estimate D2E/DX2                !
 ! D153  D(33,28,29,30)          2.9604         estimate D2E/DX2                !
 ! D154  D(33,28,29,62)       -175.9388         estimate D2E/DX2                !
 ! D155  D(27,28,33,32)       -179.9869         estimate D2E/DX2                !
 ! D156  D(27,28,33,34)         -0.4584         estimate D2E/DX2                !
 ! D157  D(29,28,33,32)         -3.0909         estimate D2E/DX2                !
 ! D158  D(29,28,33,34)        176.4376         estimate D2E/DX2                !
 ! D159  D(28,29,30,31)         -0.9848         estimate D2E/DX2                !
 ! D160  D(28,29,30,63)        179.5613         estimate D2E/DX2                !
 ! D161  D(62,29,30,31)        177.9394         estimate D2E/DX2                !
 ! D162  D(62,29,30,63)         -1.5145         estimate D2E/DX2                !
 ! D163  D(29,30,31,32)         -0.8156         estimate D2E/DX2                !
 ! D164  D(29,30,31,64)       -179.8838         estimate D2E/DX2                !
 ! D165  D(63,30,31,32)        178.6368         estimate D2E/DX2                !
 ! D166  D(63,30,31,64)         -0.4313         estimate D2E/DX2                !
 ! D167  D(30,31,32,33)          0.6826         estimate D2E/DX2                !
 ! D168  D(30,31,32,65)       -178.7233         estimate D2E/DX2                !
 ! D169  D(64,31,32,33)        179.7533         estimate D2E/DX2                !
 ! D170  D(64,31,32,65)          0.3474         estimate D2E/DX2                !
 ! D171  D(31,32,33,28)          1.2593         estimate D2E/DX2                !
 ! D172  D(31,32,33,34)       -178.1269         estimate D2E/DX2                !
 ! D173  D(65,32,33,28)       -179.3367         estimate D2E/DX2                !
 ! D174  D(65,32,33,34)          1.2771         estimate D2E/DX2                !
 ! D175  D(28,33,34,35)       -179.9866         estimate D2E/DX2                !
 ! D176  D(28,33,34,39)          0.5946         estimate D2E/DX2                !
 ! D177  D(32,33,34,35)         -0.5496         estimate D2E/DX2                !
 ! D178  D(32,33,34,39)       -179.9684         estimate D2E/DX2                !
 ! D179  D(33,34,35,36)       -178.0859         estimate D2E/DX2                !
 ! D180  D(33,34,35,66)          1.2811         estimate D2E/DX2                !
 ! D181  D(39,34,35,36)          1.2804         estimate D2E/DX2                !
 ! D182  D(39,34,35,66)       -179.3526         estimate D2E/DX2                !
 ! D183  D(33,34,39,27)         -0.4954         estimate D2E/DX2                !
 ! D184  D(33,34,39,38)        176.4015         estimate D2E/DX2                !
 ! D185  D(35,34,39,27)        179.9914         estimate D2E/DX2                !
 ! D186  D(35,34,39,38)         -3.1117         estimate D2E/DX2                !
 ! D187  D(34,35,36,37)          0.6815         estimate D2E/DX2                !
 ! D188  D(34,35,36,67)        179.71           estimate D2E/DX2                !
 ! D189  D(66,35,36,37)       -178.6875         estimate D2E/DX2                !
 ! D190  D(66,35,36,67)          0.341          estimate D2E/DX2                !
 ! D191  D(35,36,37,38)         -0.8355         estimate D2E/DX2                !
 ! D192  D(35,36,37,68)        178.5682         estimate D2E/DX2                !
 ! D193  D(67,36,37,38)       -179.8612         estimate D2E/DX2                !
 ! D194  D(67,36,37,68)         -0.4575         estimate D2E/DX2                !
 ! D195  D(36,37,38,39)         -0.9646         estimate D2E/DX2                !
 ! D196  D(36,37,38,69)        177.8822         estimate D2E/DX2                !
 ! D197  D(68,37,38,39)        179.6303         estimate D2E/DX2                !
 ! D198  D(68,37,38,69)         -1.5229         estimate D2E/DX2                !
 ! D199  D(37,38,39,27)        178.9975         estimate D2E/DX2                !
 ! D200  D(37,38,39,34)          2.9608         estimate D2E/DX2                !
 ! D201  D(69,38,39,27)          0.1769         estimate D2E/DX2                !
 ! D202  D(69,38,39,34)       -175.8598         estimate D2E/DX2                !
 ! D203  D(26,40,41,23)          0.1352         estimate D2E/DX2                !
 ! D204  D(26,40,41,71)       -179.2377         estimate D2E/DX2                !
 ! D205  D(70,40,41,23)        177.3913         estimate D2E/DX2                !
 ! D206  D(70,40,41,71)         -1.9816         estimate D2E/DX2                !
 --------------------------------------------------------------------------------
 Trust Radius=3.00D-01 FncErr=1.00D-07 GrdErr=1.00D-06 EigMax=2.50D+02 EigMin=1.00D-04
 Number of steps in this run=    426 maximum allowed number of steps=    426.
 GradGradGradGradGradGradGradGradGradGradGradGradGradGradGradGradGradGrad

 Leave Link  103 at Fri Jun  5 16:59:00 2026, MaxMem=  2516582400 cpu:               0.3 elap:               0.1
 (Enter /apl/gaussian/16c02/g16/l202.exe)
 Stoichiometry    C38H30N2Si
 Framework group  C1[X(C38H30N2Si)]
 Deg. of freedom   207
 Full point group                 C1      NOp   1
 Largest Abelian subgroup         C1      NOp   1
 Largest concise Abelian subgroup C1      NOp   1
                         Standard orientation:                         
 ---------------------------------------------------------------------
 Center     Atomic      Atomic             Coordinates (Angstroms)
 Number     Number       Type             X           Y           Z
 ---------------------------------------------------------------------
      1          6           0        0.028760   -4.593468   -1.535436
      2         14           0        0.000036   -3.529236    0.000378
      3          6           0       -0.028683   -4.593048    1.536490
      4          6           0        1.487207   -2.338550   -0.020766
      5          6           0        1.593770   -1.354035   -1.019920
      6          6           0        2.676648   -0.470227   -1.043432
      7          6           0        3.676199   -0.559924   -0.070317
      8          7           0        4.780079    0.344266   -0.090316
      9          6           0        6.117538   -0.008662    0.108740
     10          6           0        6.739427   -1.261650    0.296180
     11          6           0        8.127684   -1.311133    0.453493
     12          6           0        8.890320   -0.152258    0.406950
     13          6           0        8.279215    1.083701    0.183773
     14          6           0        6.878087    1.159662    0.018681
     15          6           0        5.988133    2.239867   -0.251218
     16          6           0        6.184813    3.626015   -0.441327
     17          6           0        5.088504    4.463937   -0.657840
     18          6           0        3.802178    3.942547   -0.673187
     19          6           0        3.581860    2.574193   -0.490257
     20          6           0        4.692117    1.721717   -0.309547
     21          6           0        3.586396   -1.538421    0.924863
     22          6           0        2.499951   -2.419287    0.949802
     23          6           0       -1.487152   -2.338559    0.021226
     24          6           0       -1.594008   -1.354183    1.020487
     25          6           0       -2.676902   -0.470388    1.043812
     26          6           0       -3.676168   -0.559949    0.070391
     27          7           0       -4.780080    0.344208    0.090228
     28          6           0       -4.692218    1.721621    0.309748
     29          6           0       -3.582035    2.574098    0.490935
     30          6           0       -3.802444    3.942410    0.674071
     31          6           0       -5.088782    4.463763    0.658460
     32          6           0       -6.185007    3.625848    0.441478
     33          6           0       -5.988234    2.239743    0.251153
     34          6           0       -6.878078    1.159569   -0.019234
     35          6           0       -8.279151    1.083610   -0.184779
     36          6           0       -8.890155   -0.152312   -0.408429
     37          6           0       -8.127480   -1.311158   -0.454983
     38          6           0       -6.739276   -1.261677   -0.297202
     39          6           0       -6.117471   -0.008714   -0.109307
     40          6           0       -3.586056   -1.538291   -0.924916
     41          6           0       -2.499601   -2.419150   -0.949661
     42          1           0       -0.839770   -5.258346   -1.565810
     43          1           0        0.928864   -5.215506   -1.556580
     44          1           0        0.020789   -3.981176   -2.442292
     45          1           0       -0.928824   -5.215027    1.557840
     46          1           0       -0.020639   -3.980503    2.443173
     47          1           0        0.839813   -5.257968    1.567012
     48          1           0        0.833532   -1.259488   -1.794868
     49          1           0        2.739564    0.253373   -1.852764
     50          1           0        6.168687   -2.185099    0.301953
     51          1           0        8.615128   -2.271598    0.604493
     52          1           0        9.969090   -0.206005    0.528596
     53          1           0        8.884812    1.983826    0.127339
     54          1           0        7.186907    4.044292   -0.409977
     55          1           0        5.244636    5.530217   -0.799566
     56          1           0        2.953002    4.605992   -0.820369
     57          1           0        2.564420    2.195614   -0.472862
     58          1           0        4.327754   -1.604375    1.717876
     59          1           0        2.459250   -3.158861    1.747490
     60          1           0       -0.833996   -1.259741    1.795669
     61          1           0       -2.740066    0.253085    1.853238
     62          1           0       -2.564580    2.195554    0.473748
     63          1           0       -2.953328    4.605854    0.821615
     64          1           0       -5.244986    5.530012    0.800338
     65          1           0       -7.187103    4.044101    0.409920
     66          1           0       -8.884786    1.983707   -0.128339
     67          1           0       -9.968882   -0.206056   -0.530446
     68          1           0       -8.614852   -2.271596   -0.606370
     69          1           0       -6.168513   -2.185112   -0.302986
     70          1           0       -4.327182   -1.604138   -1.718156
     71          1           0       -2.458653   -3.158599   -1.747451
 ---------------------------------------------------------------------
 Rotational constants (GHZ):           0.1444936           0.0345218           0.0286555
 Leave Link  202 at Fri Jun  5 16:59:00 2026, MaxMem=  2516582400 cpu:               0.0 elap:               0.0
 (Enter /apl/gaussian/16c02/g16/l301.exe)
 Standard basis: 6-31G(d) (6D, 7F)
 Ernie: Thresh=  0.10000D-02 Tol=  0.10000D-05 Strict=F.
 There are   679 symmetry adapted cartesian basis functions of A   symmetry.
 There are   679 symmetry adapted basis functions of A   symmetry.
   679 basis functions,  1292 primitive gaussians,   679 cartesian basis functions
   143 alpha electrons      143 beta electrons
       nuclear repulsion energy      4220.7307547069 Hartrees.
 IExCor=  402 DFT=T Ex+Corr=B3LYP ExCW=0 ScaHFX=  0.200000
 ScaDFX=  0.800000  0.720000  1.000000  0.810000 ScalE2=  1.000000  1.000000
 IRadAn=      5 IRanWt=     -1 IRanGd=            0 ICorTp=0 IEmpDi=  4
 NAtoms=   71 NActive=   71 NUniq=   71 SFac= 1.00D+00 NAtFMM=   60 NAOKFM=T Big=T
 Integral buffers will be    131072 words long.
 Raffenetti 2 integral format.
 Two-electron integral symmetry is turned on.
 Leave Link  301 at Fri Jun  5 16:59:00 2026, MaxMem=  2516582400 cpu:               0.1 elap:               0.1
 (Enter /apl/gaussian/16c02/g16/l302.exe)
 NPDir=0 NMtPBC=     1 NCelOv=     1 NCel=       1 NClECP=     1 NCelD=      1
         NCelK=      1 NCelE2=     1 NClLst=     1 CellRange=     0.0.
 One-electron integrals computed using PRISM.
 One-electron integral symmetry used in STVInt
 NBasis=   679 RedAO= T EigKep=  2.72D-04  NBF=   679
 NBsUse=   679 1.00D-06 EigRej= -1.00D+00 NBFU=   679
 Precomputing XC quadrature grid using
 IXCGrd= 4 IRadAn=           5 IRanWt=          -1 IRanGd=           0 AccXCQ= 0.00D+00.
 Generated NRdTot=       0 NPtTot=           0 NUsed=           0 NTot=          32
 NSgBfM=   635   616   623   633   635 MxSgAt=    71 MxSgA2=    71.
 Leave Link  302 at Fri Jun  5 16:59:02 2026, MaxMem=  2516582400 cpu:              10.4 elap:               1.0
 (Enter /apl/gaussian/16c02/g16/l303.exe)
 DipDrv:  MaxL=1.
 Leave Link  303 at Fri Jun  5 16:59:02 2026, MaxMem=  2516582400 cpu:               0.2 elap:               0.1
 (Enter /apl/gaussian/16c02/g16/l401.exe)
 ExpMin= 7.78D-02 ExpMax= 1.61D+04 ExpMxC= 2.43D+03 IAcc=3 IRadAn=         5 AccDes= 0.00D+00
 Harris functional with IExCor=  402 and IRadAn=       5 diagonalized for initial guess.
 HarFok:  IExCor=  402 AccDes= 0.00D+00 IRadAn=         5 IDoV= 1 UseB2=F ITyADJ=14
 ICtDFT=  3500011 ScaDFX=  1.000000  1.000000  1.000000  1.000000
 FoFCou: FMM=F IPFlag=           0 FMFlag=      100000 FMFlg1=        2001
         NFxFlg=           0 DoJE=T BraDBF=F KetDBF=T FulRan=T
         wScrn=  0.000000 ICntrl=       500 IOpCl=  0 I1Cent=   200000004 NGrid=           0
         NMat0=    1 NMatS0=      1 NMatT0=    0 NMatD0=    1 NMtDS0=    0 NMtDT0=    0
 Petite list used in FoFCou.
 Harris En= -1865.20901844504    
 JPrj=0 DoOrth=F DoCkMO=F.
 Leave Link  401 at Fri Jun  5 16:59:05 2026, MaxMem=  2516582400 cpu:              51.2 elap:               3.6
 (Enter /apl/gaussian/16c02/g16/l502.exe)
 Integral symmetry usage will be decided dynamically.
 Closed shell SCF:
 Using DIIS extrapolation, IDIIS=  1040.
 NGot=  2516582400 LenX=  2515640476 LenY=  2515178756
 Requested convergence on RMS density matrix=1.00D-08 within 128 cycles.
 Requested convergence on MAX density matrix=1.00D-06.
 Requested convergence on             energy=1.00D-06.
 No special actions if energy rises.
 Fock matrices will be formed incrementally for  20 cycles.
 Integral accuracy reduced to 1.0D-05 until final iterations.

 Cycle   1  Pass 0  IDiag  1:
 FoFJK:  IHMeth= 1 ICntrl=       0 DoSepK=F KAlg= 0 I1Cent=           0 FoldK=F
 IRaf= 750000000 NMat=       1 IRICut=       1 DoRegI=T DoRafI=F ISym2E= 0 IDoP0=0 IntGTp=1.
 FoFCou: FMM=T IPFlag=           0 FMFlag=      100000 FMFlg1=        2001
         NFxFlg=           0 DoJE=F BraDBF=F KetDBF=F FulRan=T
         wScrn=  0.000000 ICntrl=         0 IOpCl=  0 I1Cent=           0 NGrid=           0
         NMat0=    1 NMatS0=      1 NMatT0=    0 NMatD0=    1 NMtDS0=    0 NMtDT0=    0
 Symmetry not used in FoFCou.
 FMM levels:  10  Number of levels for PrismC:   9
 E= -1864.20481667717    
 DIIS: error= 3.73D-02 at cycle   1 NSaved=   1.
 NSaved= 1 IEnMin= 1 EnMin= -1864.20481667717     IErMin= 1 ErrMin= 3.73D-02
 ErrMax= 3.73D-02  0.00D+00 EMaxC= 1.00D-01 BMatC= 9.20D-01 BMatP= 9.20D-01
 IDIUse=3 WtCom= 6.27D-01 WtEn= 3.73D-01
 Coeff-Com:  0.100D+01
 Coeff-En:   0.100D+01
 Coeff:      0.100D+01
 Gap=     0.217 Goal=   None    Shift=    0.000
 GapD=    0.217 DampG=1.000 DampE=0.500 DampFc=0.5000 IDamp=-1.
 Damping current iteration by 5.00D-01
 RMSDP=3.56D-03 MaxDP=1.58D-01              OVMax= 2.45D-01

 Cycle   2  Pass 0  IDiag  1:
 RMSU=  1.73D-03    CP:  9.68D-01
 E= -1864.62022171361     Delta-E=       -0.415405036444 Rises=F Damp=T
 DIIS: error= 1.11D-02 at cycle   2 NSaved=   2.
 NSaved= 2 IEnMin= 2 EnMin= -1864.62022171361     IErMin= 2 ErrMin= 1.11D-02
 ErrMax= 1.11D-02  0.00D+00 EMaxC= 1.00D-01 BMatC= 8.55D-02 BMatP= 9.20D-01
 IDIUse=3 WtCom= 8.89D-01 WtEn= 1.11D-01
 Coeff-Com:  0.823D-01 0.918D+00
 Coeff-En:   0.140D+00 0.860D+00
 Coeff:      0.886D-01 0.911D+00
 Gap=     0.199 Goal=   None    Shift=    0.000
 RMSDP=1.34D-03 MaxDP=1.11D-01 DE=-4.15D-01 OVMax= 2.68D-01

 Cycle   3  Pass 0  IDiag  1:
 RMSU=  1.28D-03    CP:  9.47D-01  8.54D-01
 E= -1865.02601144644     Delta-E=       -0.405789732831 Rises=F Damp=F
 DIIS: error= 1.56D-02 at cycle   3 NSaved=   3.
 NSaved= 3 IEnMin= 3 EnMin= -1865.02601144644     IErMin= 2 ErrMin= 1.11D-02
 ErrMax= 1.56D-02  0.00D+00 EMaxC= 1.00D-01 BMatC= 1.52D-01 BMatP= 8.55D-02
 IDIUse=2 WtCom= 0.00D+00 WtEn= 1.00D+00
 Coeff-En:   0.000D+00 0.000D+00 0.100D+01
 Coeff:      0.000D+00 0.000D+00 0.100D+01
 Gap=     0.231 Goal=   None    Shift=    0.000
 RMSDP=2.26D-03 MaxDP=1.62D-01 DE=-4.06D-01 OVMax= 2.72D-01

 Cycle   4  Pass 0  IDiag  1:
 RMSU=  1.27D-03    CP:  9.51D-01  1.33D+00 -3.06D-01
 E= -1864.20608485792     Delta-E=        0.819926588523 Rises=F Damp=F
 DIIS: error= 4.36D-02 at cycle   4 NSaved=   4.
 NSaved= 4 IEnMin= 3 EnMin= -1865.02601144644     IErMin= 2 ErrMin= 1.11D-02
 ErrMax= 4.36D-02  0.00D+00 EMaxC= 1.00D-01 BMatC= 9.08D-01 BMatP= 8.55D-02
 IDIUse=2 WtCom= 0.00D+00 WtEn= 1.00D+00
 Coeff-En:   0.000D+00 0.000D+00 0.796D+00 0.204D+00
 Coeff:      0.000D+00 0.000D+00 0.796D+00 0.204D+00
 Gap=     0.187 Goal=   None    Shift=    0.000
 RMSDP=1.17D-03 MaxDP=7.43D-02 DE= 8.20D-01 OVMax= 1.66D-01

 Cycle   5  Pass 0  IDiag  1:
 RMSU=  2.13D-04    CP:  9.50D-01  1.07D+00  3.46D-01  4.94D-01
 E= -1865.10965593256     Delta-E=       -0.903571074638 Rises=F Damp=F
 DIIS: error= 1.29D-02 at cycle   5 NSaved=   5.
 NSaved= 5 IEnMin= 5 EnMin= -1865.10965593256     IErMin= 2 ErrMin= 1.11D-02
 ErrMax= 1.29D-02  0.00D+00 EMaxC= 1.00D-01 BMatC= 7.67D-02 BMatP= 8.55D-02
 IDIUse=3 WtCom= 8.71D-01 WtEn= 1.29D-01
 Coeff-Com:  0.125D-02 0.128D-01 0.326D+00-0.887D-01 0.748D+00
 Coeff-En:   0.000D+00 0.000D+00 0.376D+00 0.000D+00 0.624D+00
 Coeff:      0.109D-02 0.111D-01 0.333D+00-0.772D-01 0.732D+00
 Gap=     0.173 Goal=   None    Shift=    0.000
 RMSDP=4.79D-04 MaxDP=3.95D-02 DE=-9.04D-01 OVMax= 7.30D-02

 Cycle   6  Pass 0  IDiag  1:
 RMSU=  6.68D-05    CP:  9.49D-01  9.76D-01  6.17D-01  2.81D-01  7.72D-01
 E= -1865.19151918887     Delta-E=       -0.081863256320 Rises=F Damp=F
 DIIS: error= 9.18D-04 at cycle   6 NSaved=   6.
 NSaved= 6 IEnMin= 6 EnMin= -1865.19151918887     IErMin= 6 ErrMin= 9.18D-04
 ErrMax= 9.18D-04  0.00D+00 EMaxC= 1.00D-01 BMatC= 5.22D-04 BMatP= 7.67D-02
 IDIUse=3 WtCom= 9.91D-01 WtEn= 9.18D-03
 Coeff-Com: -0.162D-02 0.820D-02 0.143D+00-0.708D-01 0.437D+00 0.484D+00
 Coeff-En:   0.000D+00 0.000D+00 0.000D+00 0.000D+00 0.000D+00 0.100D+01
 Coeff:     -0.161D-02 0.812D-02 0.142D+00-0.702D-01 0.433D+00 0.489D+00
 Gap=     0.167 Goal=   None    Shift=    0.000
 RMSDP=3.87D-05 MaxDP=3.65D-03 DE=-8.19D-02 OVMax= 4.95D-03

 Cycle   7  Pass 0  IDiag  1:
 RMSU=  1.54D-05    CP:  9.49D-01  9.78D-01  6.16D-01  2.81D-01  8.34D-01
                    CP:  5.10D-01
 E= -1865.19199993235     Delta-E=       -0.000480743476 Rises=F Damp=F
 DIIS: error= 1.59D-04 at cycle   7 NSaved=   7.
 NSaved= 7 IEnMin= 7 EnMin= -1865.19199993235     IErMin= 7 ErrMin= 1.59D-04
 ErrMax= 1.59D-04  0.00D+00 EMaxC= 1.00D-01 BMatC= 1.96D-05 BMatP= 5.22D-04
 IDIUse=3 WtCom= 9.98D-01 WtEn= 1.59D-03
 Coeff-Com: -0.243D-03 0.677D-03 0.425D-01-0.209D-01 0.127D+00 0.214D+00
 Coeff-Com:  0.637D+00
 Coeff-En:   0.000D+00 0.000D+00 0.000D+00 0.000D+00 0.000D+00 0.000D+00
 Coeff-En:   0.100D+01
 Coeff:     -0.243D-03 0.675D-03 0.424D-01-0.208D-01 0.127D+00 0.213D+00
 Coeff:      0.638D+00
 Gap=     0.167 Goal=   None    Shift=    0.000
 RMSDP=9.18D-06 MaxDP=4.68D-04 DE=-4.81D-04 OVMax= 1.13D-03

 Initial convergence to 1.0D-05 achieved.  Increase integral accuracy.
 Cycle   8  Pass 1  IDiag  1:
 E= -1865.19206845630     Delta-E=       -0.000068523951 Rises=F Damp=F
 DIIS: error= 1.52D-04 at cycle   1 NSaved=   1.
 NSaved= 1 IEnMin= 1 EnMin= -1865.19206845630     IErMin= 1 ErrMin= 1.52D-04
 ErrMax= 1.52D-04  0.00D+00 EMaxC= 1.00D-01 BMatC= 1.34D-05 BMatP= 1.34D-05
 IDIUse=3 WtCom= 9.98D-01 WtEn= 1.52D-03
 Coeff-Com:  0.100D+01
 Coeff-En:   0.100D+01
 Coeff:      0.100D+01
 Gap=     0.167 Goal=   None    Shift=    0.000
 RMSDP=9.18D-06 MaxDP=4.68D-04 DE=-6.85D-05 OVMax= 1.40D-03

 Cycle   9  Pass 1  IDiag  1:
 RMSU=  6.64D-05    CP:  1.00D+00
 E= -1865.19206120840     Delta-E=        0.000007247902 Rises=F Damp=F
 DIIS: error= 1.70D-04 at cycle   2 NSaved=   2.
 NSaved= 2 IEnMin= 1 EnMin= -1865.19206845630     IErMin= 1 ErrMin= 1.52D-04
 ErrMax= 1.70D-04  0.00D+00 EMaxC= 1.00D-01 BMatC= 1.86D-05 BMatP= 1.34D-05
 IDIUse=3 WtCom= 4.34D-01 WtEn= 5.66D-01
 Coeff-Com:  0.551D+00 0.449D+00
 Coeff-En:   0.624D+00 0.376D+00
 Coeff:      0.593D+00 0.407D+00
 Gap=     0.167 Goal=   None    Shift=    0.000
 RMSDP=8.56D-06 MaxDP=4.57D-04 DE= 7.25D-06 OVMax= 1.22D-03

 Cycle  10  Pass 1  IDiag  1:
 RMSU=  8.48D-06    CP:  1.00D+00  9.84D-01
 E= -1865.19207930260     Delta-E=       -0.000018094201 Rises=F Damp=F
 DIIS: error= 5.24D-05 at cycle   3 NSaved=   3.
 NSaved= 3 IEnMin= 3 EnMin= -1865.19207930260     IErMin= 3 ErrMin= 5.24D-05
 ErrMax= 5.24D-05  0.00D+00 EMaxC= 1.00D-01 BMatC= 1.18D-06 BMatP= 1.34D-05
 IDIUse=1 WtCom= 1.00D+00 WtEn= 0.00D+00
 Coeff-Com:  0.399D-01 0.199D+00 0.761D+00
 Coeff:      0.399D-01 0.199D+00 0.761D+00
 Gap=     0.167 Goal=   None    Shift=    0.000
 RMSDP=2.71D-06 MaxDP=1.16D-04 DE=-1.81D-05 OVMax= 4.23D-04

 Cycle  11  Pass 1  IDiag  1:
 RMSU=  1.68D-06    CP:  1.00D+00  9.95D-01  7.65D-01
 E= -1865.19208008811     Delta-E=       -0.000000785512 Rises=F Damp=F
 DIIS: error= 2.44D-05 at cycle   4 NSaved=   4.
 NSaved= 4 IEnMin= 4 EnMin= -1865.19208008811     IErMin= 4 ErrMin= 2.44D-05
 ErrMax= 2.44D-05  0.00D+00 EMaxC= 1.00D-01 BMatC= 4.90D-07 BMatP= 1.18D-06
 IDIUse=1 WtCom= 1.00D+00 WtEn= 0.00D+00
 Coeff-Com: -0.203D-02 0.110D+00 0.517D+00 0.375D+00
 Coeff:     -0.203D-02 0.110D+00 0.517D+00 0.375D+00
 Gap=     0.167 Goal=   None    Shift=    0.000
 RMSDP=1.25D-06 MaxDP=6.53D-05 DE=-7.86D-07 OVMax= 1.62D-04

 Cycle  12  Pass 1  IDiag  1:
 RMSU=  3.20D-07    CP:  1.00D+00  9.95D-01  8.05D-01  3.10D-01
 E= -1865.19208060781     Delta-E=       -0.000000519693 Rises=F Damp=F
 DIIS: error= 6.17D-06 at cycle   5 NSaved=   5.
 NSaved= 5 IEnMin= 5 EnMin= -1865.19208060781     IErMin= 5 ErrMin= 6.17D-06
 ErrMax= 6.17D-06  0.00D+00 EMaxC= 1.00D-01 BMatC= 1.59D-08 BMatP= 4.90D-07
 IDIUse=1 WtCom= 1.00D+00 WtEn= 0.00D+00
 Coeff-Com: -0.259D-02 0.691D-01 0.327D+00 0.252D+00 0.354D+00
 Coeff:     -0.259D-02 0.691D-01 0.327D+00 0.252D+00 0.354D+00
 Gap=     0.167 Goal=   None    Shift=    0.000
 RMSDP=2.16D-07 MaxDP=1.43D-05 DE=-5.20D-07 OVMax= 3.02D-05

 Cycle  13  Pass 1  IDiag  1:
 RMSU=  8.49D-08    CP:  1.00D+00  9.95D-01  8.07D-01  3.70D-01  4.67D-01
 E= -1865.19208062498     Delta-E=       -0.000000017175 Rises=F Damp=F
 DIIS: error= 4.99D-07 at cycle   6 NSaved=   6.
 NSaved= 6 IEnMin= 6 EnMin= -1865.19208062498     IErMin= 6 ErrMin= 4.99D-07
 ErrMax= 4.99D-07  0.00D+00 EMaxC= 1.00D-01 BMatC= 1.63D-10 BMatP= 1.59D-08
 IDIUse=1 WtCom= 1.00D+00 WtEn= 0.00D+00
 Coeff-Com: -0.131D-02 0.337D-01 0.159D+00 0.123D+00 0.185D+00 0.500D+00
 Coeff:     -0.131D-02 0.337D-01 0.159D+00 0.123D+00 0.185D+00 0.500D+00
 Gap=     0.167 Goal=   None    Shift=    0.000
 RMSDP=2.72D-08 MaxDP=1.85D-06 DE=-1.72D-08 OVMax= 4.01D-06

 Cycle  14  Pass 1  IDiag  1:
 RMSU=  2.43D-08    CP:  1.00D+00  9.95D-01  8.06D-01  3.69D-01  4.84D-01
                    CP:  8.75D-01
 E= -1865.19208062512     Delta-E=       -0.000000000138 Rises=F Damp=F
 DIIS: error= 1.91D-07 at cycle   7 NSaved=   7.
 NSaved= 7 IEnMin= 7 EnMin= -1865.19208062512     IErMin= 7 ErrMin= 1.91D-07
 ErrMax= 1.91D-07  0.00D+00 EMaxC= 1.00D-01 BMatC= 2.15D-11 BMatP= 1.63D-10
 IDIUse=1 WtCom= 1.00D+00 WtEn= 0.00D+00
 Coeff-Com: -0.156D-03 0.368D-02 0.165D-01 0.119D-01 0.222D-01 0.268D+00
 Coeff-Com:  0.678D+00
 Coeff:     -0.156D-03 0.368D-02 0.165D-01 0.119D-01 0.222D-01 0.268D+00
 Coeff:      0.678D+00
 Gap=     0.167 Goal=   None    Shift=    0.000
 RMSDP=9.49D-09 MaxDP=6.26D-07 DE=-1.38D-10 OVMax= 1.50D-06

 SCF Done:  E(RB3LYP) =  -1865.19208063     A.U. after   14 cycles
            NFock= 14  Conv=0.95D-08     -V/T= 2.0088
 KE= 1.848884170084D+03 PE=-1.277938684763D+04 EE= 4.844579842211D+03
 Leave Link  502 at Fri Jun  5 17:00:05 2026, MaxMem=  2516582400 cpu:             850.5 elap:              59.2
 (Enter /apl/gaussian/16c02/g16/l601.exe)
 Copying SCF densities to generalized density rwf, IOpCl= 0 IROHF=0.

 **********************************************************************

            Population analysis using the SCF Density.

 **********************************************************************

 Orbital symmetries:
       Occupied  (A) (A) (A) (A) (A) (A) (A) (A) (A) (A) (A) (A)
                 (A) (A) (A) (A) (A) (A) (A) (A) (A) (A) (A) (A)
                 (A) (A) (A) (A) (A) (A) (A) (A) (A) (A) (A) (A)
                 (A) (A) (A) (A) (A) (A) (A) (A) (A) (A) (A) (A)
                 (A) (A) (A) (A) (A) (A) (A) (A) (A) (A) (A) (A)
                 (A) (A) (A) (A) (A) (A) (A) (A) (A) (A) (A) (A)
                 (A) (A) (A) (A) (A) (A) (A) (A) (A) (A) (A) (A)
                 (A) (A) (A) (A) (A) (A) (A) (A) (A) (A) (A) (A)
                 (A) (A) (A) (A) (A) (A) (A) (A) (A) (A) (A) (A)
                 (A) (A) (A) (A) (A) (A) (A) (A) (A) (A) (A) (A)
                 (A) (A) (A) (A) (A) (A) (A) (A) (A) (A) (A) (A)
                 (A) (A) (A) (A) (A) (A) (A) (A) (A) (A) (A)
       Virtual   (A) (A) (A) (A) (A) (A) (A) (A) (A) (A) (A) (A)
                 (A) (A) (A) (A) (A) (A) (A) (A) (A) (A) (A) (A)
                 (A) (A) (A) (A) (A) (A) (A) (A) (A) (A) (A) (A)
                 (A) (A) (A) (A) (A) (A) (A) (A) (A) (A) (A) (A)
                 (A) (A) (A) (A) (A) (A) (A) (A) (A) (A) (A) (A)
                 (A) (A) (A) (A) (A) (A) (A) (A) (A) (A) (A) (A)
                 (A) (A) (A) (A) (A) (A) (A) (A) (A) (A) (A) (A)
                 (A) (A) (A) (A) (A) (A) (A) (A) (A) (A) (A) (A)
                 (A) (A) (A) (A) (A) (A) (A) (A) (A) (A) (A) (A)
                 (A) (A) (A) (A) (A) (A) (A) (A) (A) (A) (A) (A)
                 (A) (A) (A) (A) (A) (A) (A) (A) (A) (A) (A) (A)
                 (A) (A) (A) (A) (A) (A) (A) (A) (A) (A) (A) (A)
                 (A) (A) (A) (A) (A) (A) (A) (A) (A) (A) (A) (A)
                 (A) (A) (A) (A) (A) (A) (A) (A) (A) (A) (A) (A)
                 (A) (A) (A) (A) (A) (A) (A) (A) (A) (A) (A) (A)
                 (A) (A) (A) (A) (A) (A) (A) (A) (A) (A) (A) (A)
                 (A) (A) (A) (A) (A) (A) (A) (A) (A) (A) (A) (A)
                 (A) (A) (A) (A) (A) (A) (A) (A) (A) (A) (A) (A)
                 (A) (A) (A) (A) (A) (A) (A) (A) (A) (A) (A) (A)
                 (A) (A) (A) (A) (A) (A) (A) (A) (A) (A) (A) (A)
                 (A) (A) (A) (A) (A) (A) (A) (A) (A) (A) (A) (A)
                 (A) (A) (A) (A) (A) (A) (A) (A) (A) (A) (A) (A)
                 (A) (A) (A) (A) (A) (A) (A) (A) (A) (A) (A) (A)
                 (A) (A) (A) (A) (A) (A) (A) (A) (A) (A) (A) (A)
                 (A) (A) (A) (A) (A) (A) (A) (A) (A) (A) (A) (A)
                 (A) (A) (A) (A) (A) (A) (A) (A) (A) (A) (A) (A)
                 (A) (A) (A) (A) (A) (A) (A) (A) (A) (A) (A) (A)
                 (A) (A) (A) (A) (A) (A) (A) (A) (A) (A) (A) (A)
                 (A) (A) (A) (A) (A) (A) (A) (A) (A) (A) (A) (A)
                 (A) (A) (A) (A) (A) (A) (A) (A) (A) (A) (A) (A)
                 (A) (A) (A) (A) (A) (A) (A) (A) (A) (A) (A) (A)
                 (A) (A) (A) (A) (A) (A) (A) (A) (A) (A) (A) (A)
                 (A) (A) (A) (A) (A) (A) (A) (A) (A) (A) (A) (A)
                 (A) (A) (A) (A) (A) (A) (A) (A) (A) (A) (A) (A)
                 (A) (A) (A) (A) (A) (A) (A) (A) (A) (A) (A) (A)
                 (A) (A) (A) (A) (A) (A) (A) (A) (A) (A) (A) (A)
                 (A) (A) (A) (A) (A) (A) (A) (A) (A) (A) (A) (A)
                 (A) (A) (A) (A) (A) (A) (A) (A) (A) (A) (A) (A)
                 (A) (A) (A) (A) (A) (A) (A) (A) (A) (A) (A) (A)
                 (A) (A) (A) (A) (A) (A) (A) (A) (A) (A) (A) (A)
                 (A) (A) (A) (A) (A) (A) (A) (A) (A) (A) (A) (A)
                 (A) (A) (A) (A) (A) (A) (A) (A) (A) (A) (A) (A)
                 (A) (A) (A) (A) (A) (A) (A) (A) (A) (A) (A) (A)
                 (A) (A) (A) (A) (A) (A) (A) (A) (A) (A) (A) (A)
                 (A) (A) (A) (A) (A) (A) (A) (A)
 The electronic state is 1-A.
 Alpha  occ. eigenvalues --  -66.12569 -14.38442 -14.38442 -10.24013 -10.24013
 Alpha  occ. eigenvalues --  -10.22384 -10.22383 -10.22378 -10.22378 -10.19923
 Alpha  occ. eigenvalues --  -10.19923 -10.19914 -10.19914 -10.19696 -10.19696
 Alpha  occ. eigenvalues --  -10.19676 -10.19676 -10.19005 -10.19005 -10.18989
 Alpha  occ. eigenvalues --  -10.18989 -10.18854 -10.18854 -10.18844 -10.18844
 Alpha  occ. eigenvalues --  -10.18685 -10.18685 -10.18667 -10.18667 -10.18464
 Alpha  occ. eigenvalues --  -10.18464 -10.18420 -10.18420 -10.18059 -10.18059
 Alpha  occ. eigenvalues --  -10.18045 -10.18044 -10.18037 -10.18037 -10.16996
 Alpha  occ. eigenvalues --  -10.16995  -5.27094  -3.63008  -3.62943  -3.62941
 Alpha  occ. eigenvalues --   -0.99226  -0.99226  -0.86867  -0.86783  -0.84236
 Alpha  occ. eigenvalues --   -0.84236  -0.83759  -0.83609  -0.78735  -0.78548
 Alpha  occ. eigenvalues --   -0.75561  -0.75557  -0.75153  -0.74641  -0.74295
 Alpha  occ. eigenvalues --   -0.74295  -0.72033  -0.71641  -0.71641  -0.70964
 Alpha  occ. eigenvalues --   -0.70396  -0.68815  -0.64560  -0.64340  -0.62065
 Alpha  occ. eigenvalues --   -0.62029  -0.61469  -0.61129  -0.59741  -0.59738
 Alpha  occ. eigenvalues --   -0.57682  -0.57545  -0.57269  -0.57269  -0.53664
 Alpha  occ. eigenvalues --   -0.53471  -0.51680  -0.51475  -0.51464  -0.50615
 Alpha  occ. eigenvalues --   -0.49510  -0.46984  -0.46707  -0.46613  -0.46010
 Alpha  occ. eigenvalues --   -0.45906  -0.45399  -0.45371  -0.45030  -0.44587
 Alpha  occ. eigenvalues --   -0.43366  -0.43295  -0.43248  -0.43060  -0.43006
 Alpha  occ. eigenvalues --   -0.42471  -0.42224  -0.42021  -0.42008  -0.41607
 Alpha  occ. eigenvalues --   -0.41578  -0.41469  -0.41397  -0.40556  -0.40252
 Alpha  occ. eigenvalues --   -0.39832  -0.39592  -0.37547  -0.37095  -0.36505
 Alpha  occ. eigenvalues --   -0.36452  -0.36279  -0.36219  -0.35590  -0.35555
 Alpha  occ. eigenvalues --   -0.35053  -0.35044  -0.33796  -0.33776  -0.33616
 Alpha  occ. eigenvalues --   -0.33603  -0.32601  -0.32508  -0.31261  -0.30688
 Alpha  occ. eigenvalues --   -0.29374  -0.27946  -0.27877  -0.25963  -0.25813
 Alpha  occ. eigenvalues --   -0.25779  -0.24935  -0.24782  -0.24772  -0.21343
 Alpha  occ. eigenvalues --   -0.21343  -0.19718  -0.19514
 Alpha virt. eigenvalues --   -0.02787  -0.02787  -0.02339  -0.01954  -0.01404
 Alpha virt. eigenvalues --   -0.00750   0.00602   0.00603   0.03607   0.03669
 Alpha virt. eigenvalues --    0.04626   0.04639   0.06822   0.08060   0.09400
 Alpha virt. eigenvalues --    0.09510   0.10194   0.10285   0.10537   0.10569
 Alpha virt. eigenvalues --    0.11475   0.12104   0.12359   0.12807   0.13236
 Alpha virt. eigenvalues --    0.13351   0.13725   0.14132   0.14552   0.15385
 Alpha virt. eigenvalues --    0.15603   0.15804   0.15883   0.15900   0.16060
 Alpha virt. eigenvalues --    0.16061   0.16437   0.16933   0.18141   0.18182
 Alpha virt. eigenvalues --    0.18478   0.18589   0.19176   0.19425   0.19738
 Alpha virt. eigenvalues --    0.20084   0.20119   0.20250   0.20578   0.21043
 Alpha virt. eigenvalues --    0.21199   0.21330   0.21968   0.22436   0.23401
 Alpha virt. eigenvalues --    0.23517   0.25631   0.25717   0.26782   0.26784
 Alpha virt. eigenvalues --    0.27048   0.27860   0.27985   0.28091   0.29128
 Alpha virt. eigenvalues --    0.29529   0.30082   0.30753   0.31627   0.31670
 Alpha virt. eigenvalues --    0.32127   0.32158   0.33007   0.34646   0.34754
 Alpha virt. eigenvalues --    0.35636   0.36342   0.36534   0.37635   0.37756
 Alpha virt. eigenvalues --    0.38251   0.38614   0.39172   0.39307   0.39695
 Alpha virt. eigenvalues --    0.40776   0.43322   0.44310   0.45258   0.46403
 Alpha virt. eigenvalues --    0.46812   0.47027   0.49990   0.50073   0.50118
 Alpha virt. eigenvalues --    0.51161   0.51568   0.52014   0.52319   0.53116
 Alpha virt. eigenvalues --    0.53246   0.53310   0.53683   0.53724   0.54042
 Alpha virt. eigenvalues --    0.54232   0.54375   0.54821   0.55187   0.55251
 Alpha virt. eigenvalues --    0.55530   0.56003   0.56299   0.56849   0.57114
 Alpha virt. eigenvalues --    0.57232   0.57429   0.57635   0.57890   0.58146
 Alpha virt. eigenvalues --    0.58440   0.58664   0.58793   0.58804   0.59026
 Alpha virt. eigenvalues --    0.59095   0.59447   0.60135   0.60369   0.60553
 Alpha virt. eigenvalues --    0.60955   0.61120   0.61348   0.61353   0.61560
 Alpha virt. eigenvalues --    0.61573   0.61668   0.62091   0.62236   0.62286
[...]
 0000041,-0.00000042,-0.00000021,-0.00000087,-0.00000111,-0.00000009,-0
 .00000031,0.00000098,-0.00000229,0.00000279,-0.00000228,0.00000097,-0.
 00000227,0.00000880,-0.00000536,-0.00000078,-0.00000407,0.00000174,-0.
 00000014,-0.00000253,-0.00000179,0.00003630,0.00000273,-0.00012549,0.0
 0011320,-0.00000355,0.00001591,0.00021136,-0.00013361,-0.00006804,0.00
 029436,-0.00059168,-0.00023135,-0.00061781,-0.00165154,-0.00152104,0.0
 0001208,0.00017357,-0.00039243,-0.00003086,-0.00008658,0.00007752,-0.0
 0003561,0.00008770,-0.00000380,0.00001073,0.00007382,0.00000696,0.0002
 0604,0.00005515,0.00004146,-0.00062077,0.00040692,-0.00021880,0.001081
 70,0.00351801,0.00390362,0.00043477,0.00020640,0.00005442,-0.00040670,
 0.00230089,0.00593117,0.00070965,-0.00078933,0.00219636,-0.08311925,0.
 08276470,-0.08903168,-0.01015758,0.00734448,-0.00258423,-0.00029122,-0
 .00006886,0.00015511,-0.00015510,0.00008332,-0.00005615,-0.00000008,0.
 00000502,0.00000219,0.00000181,0.00000187,-0.00000499,-0.00000128,-0.0
 0000237,-0.00000168,0.00000308,-0.00000736,0.00001291,0.00001243,-0.00
 000276,-0.00000744,-0.00000720,0.00000451,-0.00000137,0.00000242,0.000
 00334,0.00000133,-0.00000109,-0.00000178,0.00000061,0.00000055,-0.0000
 0005,0.00000139,-0.00000019,0.00000051,-0.00000003,-0.00000063,0.00000
 014,0.00000017,-0.00000039,-0.00000012,0.00000046,-0.00000052,-0.00000
 003,0.00000032,-0.00000037,-0.00000021,0.00000078,0.00000027,0.0000005
 7,0.00000093,-0.00000110,0.00000154,0.00000013,-0.00000003,0.00000029,
 0.00000127,0.00000262,-0.00000146,0.00000008,0.00001548,0.00000334,0.0
 0000269,0.00000397,0.00002656,-0.00001186,0.00003195,0.00000435,-0.000
 03222,0.00000538,0.00000308,-0.00000678,0.00002362,0.00000501,-0.00004
 165,-0.00001124,-0.00000360,0.00000897,0.00009301,-0.00061902,-0.00108
 742,0.00001697,0.00021832,0.00044895,0.00047810,-0.00213299,-0.0030510
 1,0.09208585,-0.09068689,0.08574100,-0.00011956,0.00003730,-0.00008352
 ,0.00042943,-0.00028771,0.00088381,-0.00023176,0.00010811,-0.00014242,
 -0.00023644,0.00013625,-0.00013072,-0.00002862,0.00004659,0.00001658,-
 0.00002022,-0.00000671,0.00001088,0.00005295,0.00003902,-0.00002296,-0
 .00006446,-0.00004945,0.00002437,0.00005222,-0.00001902,0.00001304,-0.
 00000918,0.00000610,-0.00001102,0.00000869,-0.00000045,0.00000143,-0.0
 0000510,-0.00000415,0.00000181,-0.00000045,0.00000141,-0.00000076,-0.0
 0000708,-0.00001015,0.00000900,-0.00001528,-0.00000490,0.00000055,0.00
 000180,-0.00000107,-0.00000050,-0.00000488,-0.00000450,0.00000214,0.00
 000055,0.00000562,-0.00000661,0.00000957,-0.00000885,0.00000921,-0.000
 01180,0.00004854,-0.00003053,-0.00000768,-0.00000444,0.00003864,-0.000
 03480,-0.00010359,0.00001150,-0.00253707,0.00412096,-0.00246314,0.0001
 2310,0.00005536,-0.00080464,0.00152610,0.00152149,-0.00068147,0.004465
 83,0.00057855,-0.00357955,0.00033810,-0.00173847,-0.00058735,0.0002249
 6,0.00008867,0.00010981,0.00000907,-0.00004598,-0.00001495,-0.00002805
 ,-0.00000785,-0.00001074,0.00001074,-0.00000274,0.00000610,0.00001221,
 0.00000350,0.00000315,0.00004742,-0.00003593,0.00001218,-0.00003567,0.
 00007911,0.00012848,0.00003916,0.00003495,-0.00000967,-0.00001981,-0.0
 0006831,0.00006159,-0.00016926,0.00002989,-0.00012171,-0.00034396,-0.0
 0078416,-0.00016126,0.00009126,0.00013356,-0.00039936,-0.22158280,0.03
 968520,0.13862929,-0.01611155,0.00259599,0.01818389,0.00000871,0.00001
 839,-0.00000269,0.00001142,-0.00000012,-0.00005319,-0.00000867,-0.0000
 0835,-0.00000375,0.00000819,0.00000552,-0.00000024,0.00000682,-0.00003
 603,-0.00000356,-0.00000377,0.00010223,0.00002255,0.00001074,0.0000118
 2,-0.00000173,-0.00000815,-0.00001080,0.00000378,0.00000337,-0.0000014
 6,0.00000545,-0.00000103,0.00000156,-0.00000103,-0.00000261,-0.0000000
 2,0.00000022,-0.00000185,-0.00000103,0.00000133,-0.00000199,-0.0000010
 0,0.00000085,-0.00000085,-0.00000167,0.00000198,0.00000153,-0.00000026
 ,0.00000229,-0.00000387,0.00000386,-0.00000341,-0.00001181,-0.00000453
 ,0.00000753,0.00000327,0.00000283,-0.00001486,-0.00013186,-0.00039124,
 0.00000892,0.00027935,0.00020700,-0.00023717,-0.00001840,0.00000505,0.
 00001353,-0.00000276,-0.00000351,0.00000476,-0.00000136,-0.00000308,0.
 00000265,0.00000254,-0.00000478,0.00000235,0.00000939,-0.00001576,-0.0
 0002360,-0.00000086,0.00001385,0.00000825,0.00001001,0.00000365,-0.000
 00290,-0.00040858,-0.00003551,-0.00042379,0.23397288,0.00002281,-0.000
 02882,0.00001865,-0.00003569,0.00035729,-0.00030945,0.00004819,-0.0000
 1027,0.00001849,0.00022491,-0.00010343,0.00005638,0.00002052,-0.000015
 21,0.00001003,-0.00000515,-0.00000928,0.00000337,-0.00001823,-0.000039
 11,0.00000990,0.00003867,0.00002538,-0.00001518,-0.00003221,0.00001073
 ,-0.00000725,0.00000608,-0.00000435,0.00000520,-0.00000493,0.00000007,
 -0.00000150,0.00000301,0.00000155,-0.00000122,-0.00000036,-0.00000135,
 0.00000011,0.00000447,0.00000653,-0.00000579,0.00000839,0.00000272,-0.
 00000034,-0.00000116,0.00000028,-0.00000026,0.00000336,0.00000121,-0.0
 0000155,-0.00000043,-0.00000465,0.00000307,-0.00000473,0.00000293,-0.0
 0000730,0.00000714,-0.00002631,0.00001775,0.00001582,0.00001693,-0.000
 03363,0.00000949,0.00005648,0.00001868,0.00387750,0.00516364,0.0023970
 5,0.00002883,-0.00045269,0.00040019,0.00199811,0.00431511,0.00280680,-
 0.00675309,0.00521006,0.00556988,-0.00252557,-0.00329821,-0.00205234,0
 .00030849,-0.00032947,0.00023164,0.00006716,0.00000760,-0.00002588,-0.
 00004528,-0.00004074,0.00001681,0.00000113,0.00002844,-0.00001820,0.00
 001578,-0.00003372,0.00002811,-0.00002479,0.00001076,0.00004214,-0.000
 36805,0.00006820,0.00005770,0.00025815,0.00018312,-0.00005480,0.000100
 63,-0.00025978,0.00013097,-0.00031748,-0.00010359,0.00013289,0.0000602
 4,0.00037414,0.00022788,0.00087093,0.00070729,-0.00050736,0.04049885,-
 0.04565288,-0.02115415,0.00873413,0.00110775,-0.00891917,-0.00000119,-
 0.00000817,0.00000563,-0.00000201,0.00000948,0.00002552,0.00000222,0.0
 0001391,-0.00000427,-0.00000144,-0.00001098,0.00000185,-0.00000314,0.0
 0000058,-0.00000933,-0.00000223,-0.00001420,-0.00002257,-0.00000857,-0
 .00000642,-0.00000909,-0.00000043,0.00000333,0.00000340,-0.00000237,0.
 00000176,-0.00000262,0.00000068,-0.00000063,0.00000125,0.00000174,0.00
 000034,0.00000024,0.00000092,0.00000102,-0.00000050,0.00000125,0.00000
 096,-0.00000009,0.00000028,0.00000153,-0.00000058,-0.00000099,0.000000
 98,0.00000026,0.00000201,0.00000015,0.00000360,0.00000615,0.00000223,-
 0.00000767,0.00000528,-0.00000529,0.00000869,-0.00038435,-0.00101913,-
 0.00032785,-0.00028235,0.00056664,0.00040310,-0.00002859,0.00000360,-0
 .00000033,-0.00000118,-0.00000180,0.00000230,-0.00000355,-0.00000436,0
 .00000021,-0.00000317,0.00000301,0.00000790,-0.00000510,-0.00001420,0.
 00000011,0.00003011,-0.00003062,-0.00000662,-0.00003037,0.00000424,0.0
 0000612,-0.00021152,-0.00055614,-0.00053633,-0.04452436,0.03701610,0.0
 0004639,-0.00003108,0.00000171,-0.00032987,0.00002102,0.00027727,-0.00
 000425,0.00002707,-0.00004234,-0.00004868,0.00003483,-0.00005239,-0.00
 000198,0.00000432,0.00001090,0.00000455,-0.00001000,0.00000490,-0.0000
 1842,-0.00001563,0.00000647,0.00001883,0.00001182,-0.00000882,-0.00001
 634,0.00000490,-0.00000473,0.00000317,-0.00000256,0.00000348,-0.000003
 05,-0.00000012,-0.00000066,0.00000142,0.00000137,-0.00000103,-0.000000
 05,-0.00000094,0.00000060,0.00000240,0.00000386,-0.00000312,0.00000508
 ,0.00000084,0.00000046,-0.00000047,0.00000057,-0.00000023,0.00000175,0
 .00000091,-0.00000005,0.00000127,-0.00000231,0.00000359,-0.00000678,0.
 00000160,-0.00000180,0.00000375,-0.00001219,0.00000826,0.00000491,0.00
 001077,0.00000574,-0.00001664,-0.00000932,0.00001590,-0.00199608,0.002
 15231,0.00050041,-0.00089871,0.00023380,-0.00041717,-0.00193233,0.0030
 6618,-0.00460230,0.02592375,-0.00558350,-0.01461062,0.00040368,-0.0012
 9510,0.00189603,-0.00017585,0.00026187,-0.00007320,0.00011532,0.000041
 43,0.00005305,0.00000233,-0.00008635,0.00004924,-0.00009284,-0.0000490
 6,0.00001491,-0.00004498,0.00009519,-0.00006370,0.00011764,-0.00012133
 ,0.00002068,-0.00034982,0.00016378,-0.00008888,0.00015538,0.00009097,-
 0.00000613,0.00008668,-0.00017232,0.00006357,-0.00026084,-0.00011332,0
 .00012614,-0.00013018,0.00017820,0.00012490,-0.00021693,0.00025057,-0.
 00056489,0.13604637,-0.02136184,-0.16996307,-0.01015203,0.00195070,0.0
 1108849,0.00000193,0.00002320,-0.00002196,0.00001415,0.00000119,0.0000
 0484,-0.00001363,-0.00000597,-0.00001071,-0.00000086,0.00001704,0.0000
 0623,-0.00000132,-0.00001025,-0.00000479,0.00000340,0.00001278,-0.0000
 0294,-0.00000166,-0.00001136,-0.00000941,-0.00000096,0.00000029,0.0000
 0060,-0.00000088,0.00000102,-0.00000140,-0.00000003,-0.00000034,0.0000
 0054,0.00000115,0.00000008,0.00000016,0.00000066,0.00000067,-0.0000005
 9,0.00000116,0.00000036,-0.00000011,0.00000082,0.00000113,-0.00000120,
 -0.00000105,-0.00000096,-0.00000051,0.00000105,-0.00000166,-0.00000006
 ,-0.00000099,-0.00000148,-0.00000100,-0.00000296,0.00000109,-0.0000039
 8,0.00002118,-0.00028102,0.00001890,0.00138302,-0.00010627,-0.00073385
 ,-0.00004644,-0.00006949,-0.00001791,-0.00000395,-0.00001825,0.0000026
 5,-0.00000755,-0.00001203,0.00000525,0.00000587,0.00000606,-0.00000234
 ,0.00001394,-0.00001295,0.00000723,0.00004137,-0.00001540,0.00000753,0
 .00002242,0.00003452,-0.00000076,0.00002434,-0.00051933,-0.00012255,-0
 .14768979,0.02225477,0.17639000,0.00031625,-0.00011032,-0.00005278,-0.
 00064051,-0.00084787,0.00229178,0.00004567,-0.00001624,-0.00023483,-0.
 00009545,0.00013499,-0.00023737,0.00001903,0.00002096,-0.00004427,0.00
 001275,0.00000350,0.00000002,-0.00002763,-0.00001884,0.00001515,0.0000
 3382,0.00002893,-0.00002533,-0.00002095,0.00001436,-0.00000623,0.00000
 325,-0.00000768,0.00000686,-0.00000714,-0.00000021,-0.00000232,0.00000
 216,0.00000397,-0.00000368,0.00000300,-0.00000091,0.00000051,0.0000016
 3,0.00000349,-0.00000370,0.00001251,0.00000530,-0.00000171,-0.00000183
 ,-0.00000199,0.00000205,0.00000059,0.00000260,-0.00000296,-0.00000123,
 -0.00000303,0.00000129,0.00000055,0.00000614,-0.00000922,0.00000399,-0
 .00003802,0.00002731,0.00000696,0.00002344,0.00001676,-0.00003725,-0.0
 0001492,-0.00002153,0.00516293,-0.00705108,0.02401595,-0.00347957,0.00
 283048,0.00337354,-0.00104984,0.00018674,0.00017410,-0.00309157,0.0039
 4011,0.00020515,-0.00033553,0.00077470,-0.00156231,-0.00023801,-0.0004
 3059,-0.00006617,-0.00000456,0.00004463,-0.00002844,0.00003461,-0.0000
 1823,0.00001871,-0.00002670,0.00001103,-0.00001205,-0.00002289,0.00000
 267,0.00002117,-0.00010475,0.00009144,-0.00001855,-0.00006709,0.000069
 01,-0.00007537,0.00000934,-0.00000347,0.00001286,-0.00003884,0.0000071
 5,-0.00000811,0.00003776,-0.00001947,0.00001858,-0.00011409,-0.0000226
 4,0.00000649,0.00039014,0.00021344,-0.00000297,0.00122927,0.00689519,-
 0.02860096,-0.05851147,0.01101252,-0.01639054,-0.00047472,0.00046761,-
 0.00067742,0.00017170,0.00001577,0.00009710,-0.00028885,-0.00009900,-0
 .00029167,0.00000822,0.00002886,0.00002763,0.00002517,-0.00010018,-0.0
 0004901,-0.00001753,-0.00000243,0.00000492,0.00001713,-0.00000092,0.00
 003646,0.00000466,0.00000528,0.00000279,-0.00000119,0.00000272,-0.0000
 0098,-0.00000103,-0.00000014,0.00000071,0.00000157,0.00000051,0.000000
 07,0.00000130,0.00000116,-0.00000074,0.00000091,0.00000073,-0.00000016
 ,-0.00000001,0.00000147,-0.00000085,-0.00000120,0.00000220,-0.00000155
 ,0.00000258,-0.00000016,0.00000569,0.00000550,-0.00000282,0.00000249,-
 0.00000339,0.00000037,0.00000047,0.00031941,-0.00029979,0.00142246,0.0
 0002417,-0.00038822,-0.00012120,0.00001689,0.00000231,0.00000385,0.000
 00150,0.00000668,-0.00000431,0.00000039,0.00000302,-0.00000161,-0.0000
 0745,0.00001119,-0.00000688,-0.00000634,-0.00000058,-0.00000060,-0.000
 00233,-0.00000368,0.00000030,-0.00001452,-0.00001299,-0.00000163,0.000
 01890,-0.00000399,-0.00002882,0.00046252,-0.00164932,-0.00001192,0.060
 32673,0.00032732,0.00036928,-0.00012082,-0.00004144,-0.00179200,-0.000
 80798,0.00046769,-0.00007494,0.00015579,-0.00030521,0.00027136,-0.0000
 1300,-0.00008097,0.00010133,0.00003365,0.00000466,-0.00001583,-0.00002
 393,0.00002259,0.00004166,-0.00000904,-0.00003820,-0.00003837,0.000018
 28,0.00003287,-0.00001222,0.00000705,-0.00000542,0.00000330,-0.0000072
 6,0.00000531,-0.00000036,0.00000026,-0.00000334,-0.00000300,0.00000099
 ,-0.00000061,0.00000070,-0.00000063,-0.00000392,-0.00000623,0.00000592
 ,-0.00001021,-0.00000369,0.00000050,0.00000102,-0.00000071,-0.00000085
 ,-0.00000268,-0.00000324,0.00000137,0.00000118,0.00000247,-0.00000369,
 0.00000501,-0.00000635,0.00000503,-0.00000841,0.00003309,-0.00001891,-
 0.00002284,0.00000694,0.00004024,-0.00006922,-0.00015356,0.00000491,-0
 .00211675,0.00256785,-0.00443806,0.00259641,0.00616889,0.00038271,0.00
 016261,-0.00042751,-0.00027131,0.00423669,0.00578993,0.00141918,0.0000
 5504,-0.00022643,0.00043175,0.00007142,0.00025174,0.00002696,-0.000055
 05,-0.00009606,0.00001835,-0.00000441,0.00000083,-0.00004575,0.0000150
 6,-0.00000857,0.00001278,0.00001350,0.00000037,-0.00001576,0.00003445,
 -0.00005513,0.00002769,0.00006048,-0.00003657,0.00002454,-0.00002314,-
 0.00002926,0.00000522,-0.00000118,0.00002022,-0.00000671,0.00001955,-0
 .00001199,-0.00004044,-0.00005485,0.00002130,-0.00004927,-0.00013872,-
 0.00012409,-0.00001749,0.00051743,0.00055792,0.01245827,0.01189296,-0.
 05736307,0.06829601,0.00030672,-0.00015183,0.00044508,-0.00003836,-0.0
 0028201,-0.00010338,-0.00028712,-0.00021475,-0.00014886,-0.00000427,-0
 .00006374,-0.00000908,-0.00003363,0.00002196,0.00000432,-0.00002914,-0
 .00015706,-0.00003986,0.00003743,0.00000602,0.00002463,-0.00000942,-0.
 00001039,0.00000482,0.00000193,-0.00000014,0.00000377,-0.00000070,0.00
 000112,-0.00000029,-0.00000140,0.00000020,0.00000036,-0.00000116,-0.00
 000038,0.00000088,-0.00000108,-0.00000047,0.00000071,-0.00000040,-0.00
 000066,0.00000125,0.00000079,-0.00000004,0.00000179,-0.00000210,0.0000
 0279,-0.00000127,-0.00001277,-0.00000889,0.00000989,-0.00000133,0.0000
 0439,-0.00000820,0.00010886,0.00038844,-0.00020154,-0.00040686,-0.0010
 3959,-0.00020604,0.00002694,-0.00000400,0.00003925,-0.00000226,-0.0000
 0388,0.00000304,0.00000101,0.00000170,0.00000922,0.00000330,-0.0000053
 8,0.00000224,0.00000319,0.00000038,0.00000465,0.00000117,0.00000522,0.
 00000826,-0.00000166,0.00000053,-0.00000040,-0.00000737,0.00003638,0.0
 0003359,-0.00150002,-0.00320228,-0.00102938,-0.01570693,0.04895639,-0.
 00063237,0.00036926,-0.00014757,-0.00059108,0.00018991,-0.00174130,0.0
 0033398,-0.00008742,0.00028243,0.00006830,-0.00002246,0.00020232,0.000
 01223,-0.00001657,0.00003965,-0.00000387,-0.00000499,0.00000109,-0.000
 00337,-0.00000328,-0.00000313,0.00000531,-0.00000640,0.00001187,-0.000
 01239,-0.00000392,-0.00000102,0.00000241,0.00000325,-0.00000036,0.0000
 0230,0.00000063,0.00000100,0.00000089,-0.00000219,0.00000302,-0.000003
 60,-0.00000035,-0.00000008,0.00000318,0.00000392,-0.00000265,-0.000004
 63,-0.00000304,0.00000217,0.00000070,0.00000338,-0.00000272,0.00000387
 ,-0.00000122,0.00000286,-0.00000068,-0.00000042,0.00000191,-0.00000730
 ,-0.00000273,0.00000435,0.00000443,0.00001383,-0.00001291,-0.00000572,
 -0.00000133,-0.00001107,-0.00000884,0.00000192,0.00001840,-0.00119283,
 0.00379417,-0.01411768,0.00407086,0.00013335,-0.00034821,0.00011426,-0
 .00028072,0.00064804,-0.00087056,0.00160351,0.00231936,-0.00039758,0.0
 0041074,-0.00066764,-0.00009732,-0.00041512,0.00011910,0.00002372,0.00
 007472,-0.00002206,0.00002560,-0.00003801,0.00002694,-0.00003711,0.000
 01554,-0.00001312,-0.00000445,0.00000593,0.00000601,-0.00009988,0.0000
 2750,-0.00002373,-0.00006408,0.00006816,-0.00006404,0.00000197,-0.0000
 1067,0.00001531,-0.00004542,0.00001514,-0.00001488,0.00005875,-0.00000
 562,0.00000757,-0.00012279,-0.00004514,-0.00000303,0.00039992,0.000195
 97,-0.00008496,0.00085510,0.00217240,-0.00778381,-0.01689858,0.0690951
 2,-0.31696734,-0.00049370,-0.00014633,0.00028582,-0.00028429,-0.000018
 61,0.00015726,0.00005893,0.00008199,0.00006987,-0.00000280,-0.00009260
 ,-0.00002361,-0.00004540,0.00008419,0.00004195,-0.00000176,-0.00012906
 ,-0.00002614,-0.00000461,0.00000213,-0.00004048,-0.00000212,-0.0000011
 0,-0.00000419,-0.00000116,-0.00000127,-0.00000167,0.00000160,-0.000000
 99,0.00000046,0.00000071,-0.00000035,-0.00000002,-0.00000027,-0.000000
 18,-0.00000028,0.00000088,0.00000004,-0.00000025,0.00000025,-0.0000002
 9,-0.00000032,0.00000039,-0.00000285,0.00000171,-0.00000072,-0.0000003
 5,-0.00000443,-0.00000227,0.00000073,-0.00000262,0.00000118,-0.0000023
 5,0.00000117,-0.00023466,0.00038337,-0.00082838,-0.00013166,-0.0001973
 5,-0.00011188,0.00000215,-0.00002413,0.00000058,0.00000512,0.00000835,
 -0.00000591,-0.00000318,0.00000695,-0.00000561,-0.00000988,0.00000788,
 -0.00000610,-0.00000991,0.00000223,-0.00000165,-0.00000878,-0.00000274
 ,0.00000177,-0.00001543,-0.00001544,0.00000098,0.00001988,0.00003280,-
 0.00001431,-0.00051935,-0.00088543,0.00072058,0.01679755,-0.07633597,0
 .33811563\\-0.00000137,-0.00000053,0.00000073,-0.00000064,0.00000690,-
 0.00000514,0.00000151,-0.00000069,0.00000021,-0.00000053,-0.00000714,-
 0.00000155,0.00000114,0.00000256,0.00000009,-0.00000305,-0.00000109,0.
 00000084,0.00000592,0.00000384,-0.00000351,-0.00000493,-0.00000578,0.0
 0000039,0.00000274,0.00000289,0.00000165,-0.00000125,0.00000043,-0.000
 00003,0.00000105,0.00000019,-0.00000099,-0.00000012,-0.00000070,0.0000
 0104,-0.00000032,0.00000015,-0.00000209,0.00000112,-0.00000576,-0.0000
 0096,-0.00000389,0.00000280,0.00000112,0.00000119,-0.00000028,0.000000
 64,-0.00000083,-0.00000023,-0.00000071,0.00000074,0.00000071,-0.000000
 44,-0.00000018,-0.00000124,0.00000022,0.00000182,0.00000269,-0.0000009
 8,-0.00000197,-0.00000149,0.00000107,0.00000122,0.00000203,0.00000009,
 0.00000124,-0.00000046,0.00000717,-0.00000140,0.00000052,-0.00000236,0
 .00000321,-0.00000075,0.00000052,-0.00000661,0.00000371,-0.00000212,0.
 00000558,-0.00000142,0.00000493,-0.00000221,0.00000148,-0.00000208,0.0
 0000035,-0.00000053,0.00000110,-0.00000085,0.00000053,-0.00000048,0.00
 000078,0.00000072,0.00000035,-0.00000109,-0.00000084,0.00000018,0.0000
 0360,0.00000017,-0.00000334,-0.00000051,-0.00000084,0.00000585,0.00000
 011,0.00000207,0.00000043,0.00000029,-0.00000117,0.00000036,-0.0000011
 5,0.00000087,0.00000020,0.00000118,0.00000031,-0.00000052,-0.00000291,
 -0.00000107,-0.00000297,0.00000222,-0.00000120,0.00000094,-0.00000147,
 0.00000030,-0.00000186,-0.00000027,-0.00000047,-0.00000133,0.00000031,
 -0.00000043,0.00000010,0.00000052,-0.00000068,0.00000167,-0.00000026,-
 0.00000024,0.00000040,-0.00000029,-0.00000185,0.00000020,0.00000020,0.
 00000116,0.00000082,0.00000029,0.00000004,0.,0.00000021,0.00000012,-0.
 00000016,0.00000061,-0.00000029,-0.00000025,0.00000002,-0.00000037,-0.
 00000034,0.00000005,-0.00000025,-0.00000014,-0.00000018,-0.00000011,-0
 .00000007,-0.00000009,-0.00000049,-0.00000034,-0.00000015,-0.00000029,
 -0.00000041,-0.00000008,-0.00000021,-0.00000021,-0.00000003,0.00000029
 ,-0.00000026,-0.00000022,-0.00000026,-0.00000040,-0.00000015,-0.000000
 20,0.00000005,-0.00000029,-0.00000001,0.,-0.00000023,0.00000016,-0.000
 00005,-0.00000003,0.00000033,-0.00000020,0.00000008,0.00000015,0.00000
 025,0.00000015,0.00000032,0.00000038,0.00000012,0.00000020,0.00000056,
 0.00000019,0.00000006,0.00000011,-0.00000003,0.00000006,0.00000029,0.,
 0.00000022,0.00000045,-0.00000058,0.00000009,0.00000040,0.00000020,0.0
 0000033,0.00000034,0.00000017,-0.00000008,0.00000016\\\@
 The archive entry for this job was punched.


 I think that all right-thinking people in this
 country are sick and tired of being told that
 ordinary, decent people are fed up in this country
 with being sick and tired.  I'm certainly not!
 But I'm sick and tired of being told that I am!
                               -- Monty Python
 Job cpu time:       0 days  5 hours 41 minutes 19.1 seconds.
 Elapsed time:       0 days  0 hours 21 minutes 47.8 seconds.
 File lengths (MBytes):  RWF=   3398 Int=      0 D2E=      0 Chk=     41 Scr=      1
 Normal termination of Gaussian 16 at Fri Jun  5 17:39:39 2026.
