 Entering Gaussian System, Link 0=/apl/gaussian/16c02/g16/._.g16
 Initial command:
 /apl/gaussian/16c02/g16/l1.exe "/lwork/users/sm2/679435.ccpbs1/gaussian/Gau-862833.inp" -scrdir="/lwork/users/sm2/679435.ccpbs1/gaussian/"
 Default CPUs for threads: 96,97,98,99,100,101,102,103,104,105,106,107,108,109,11
 0,111
 Default is to use a total of  16 processors:
                               16 via shared-memory
                                1 via Linda
 Entering Link 1 = /apl/gaussian/16c02/g16/l1.exe PID=    862834.
  
 Copyright (c) 1988-2021, Gaussian, Inc.  All Rights Reserved.
  
 This is part of the Gaussian(R) 16 program.  It is based on
 the Gaussian(R) 09 system (copyright 2009, Gaussian, Inc.),
 the Gaussian(R) 03 system (copyright 2003, Gaussian, Inc.),
 the Gaussian(R) 98 system (copyright 1998, Gaussian, Inc.),
 the Gaussian(R) 94 system (copyright 1995, Gaussian, Inc.),
 the Gaussian 92(TM) system (copyright 1992, Gaussian, Inc.),
 the Gaussian 90(TM) system (copyright 1990, Gaussian, Inc.),
 the Gaussian 88(TM) system (copyright 1988, Gaussian, Inc.),
 the Gaussian 86(TM) system (copyright 1986, Carnegie Mellon
 University), and the Gaussian 82(TM) system (copyright 1983,
 Carnegie Mellon University). Gaussian is a federally registered
 trademark of Gaussian, Inc.
  
 This software contains proprietary and confidential information,
 including trade secrets, belonging to Gaussian, Inc.
  
 This software is provided under written license and may be
 used, copied, transmitted, or stored only in accord with that
 written license.
  
 The following legend is applicable only to US Government
 contracts under FAR:
  
                    RESTRICTED RIGHTS LEGEND
  
 Use, reproduction and disclosure by the US Government is
 subject to restrictions as set forth in subparagraphs (a)
 and (c) of the Commercial Computer Software - Restricted
 Rights clause in FAR 52.227-19.
  
 Gaussian, Inc.
 340 Quinnipiac St., Bldg. 40, Wallingford CT 06492
  
  
 ---------------------------------------------------------------
 Warning -- This program may not be used in any manner that
 competes with the business of Gaussian, Inc. or will provide
 assistance to any competitor of Gaussian, Inc.  The licensee
 of this program is prohibited from giving any competitor of
 Gaussian, Inc. access to this program.  By using this program,
 the user acknowledges that Gaussian, Inc. is engaged in the
 business of creating and licensing software in the field of
 computational chemistry and represents and warrants to the
 licensee that it is not a competitor of Gaussian, Inc. and that
 it will not use this program in any manner prohibited above.
 ---------------------------------------------------------------
  

 Cite this work as:
 Gaussian 16, Revision C.02,
 M. J. Frisch, G. W. Trucks, H. B. Schlegel, G. E. Scuseria, 
 M. A. Robb, J. R. Cheeseman, G. Scalmani, V. Barone, 
 G. A. Petersson, H. Nakatsuji, X. Li, M. Caricato, A. V. Marenich, 
 J. Bloino, B. G. Janesko, R. Gomperts, B. Mennucci, H. P. Hratchian, 
 J. V. Ortiz, A. F. Izmaylov, J. L. Sonnenberg, D. Williams-Young, 
 F. Ding, F. Lipparini, F. Egidi, J. Goings, B. Peng, A. Petrone, 
 T. Henderson, D. Ranasinghe, V. G. Zakrzewski, J. Gao, N. Rega, 
 G. Zheng, W. Liang, M. Hada, M. Ehara, K. Toyota, R. Fukuda, 
 J. Hasegawa, M. Ishida, T. Nakajima, Y. Honda, O. Kitao, H. Nakai, 
 T. Vreven, K. Throssell, J. A. Montgomery, Jr., J. E. Peralta, 
 F. Ogliaro, M. J. Bearpark, J. J. Heyd, E. N. Brothers, K. N. Kudin, 
 V. N. Staroverov, T. A. Keith, R. Kobayashi, J. Normand, 
 K. Raghavachari, A. P. Rendell, J. C. Burant, S. S. Iyengar, 
 J. Tomasi, M. Cossi, J. M. Millam, M. Klene, C. Adamo, R. Cammi, 
 J. W. Ochterski, R. L. Martin, K. Morokuma, O. Farkas, 
 J. B. Foresman, and D. J. Fox, Gaussian, Inc., Wallingford CT, 2019.
 
 ******************************************
 Gaussian 16:  ES64L-G16RevC.02  7-Dec-2021
                 5-Jun-2026 
 ******************************************
 %chk=DPEPO.chk
 %mem=19200MB
 SetSPE:  set environment variable "OMP_PROC_BIND" = "true"
 SetSPE:  set environment variable "OMP_PLACES" = "{96},{97},{98},{99},{100},{101},{102},{103},{104},{105},{106},{107},{108},{109},{110},{111}"
 --------------------------
 #p B3LYP/6-31G(d) opt freq
 --------------------------
 1/18=20,19=15,26=3,38=1/1,3;
 2/9=110,12=2,17=6,18=5,40=1/2;
 3/5=1,6=6,7=1,11=2,25=1,30=1,71=1,74=-5/1,2,3;
 4//1;
 5/5=2,38=5/2;
 6/7=2,8=2,9=2,10=2,28=1/1;
 7//1,2,3,16;
 1/18=20,19=15,26=3/3(2);
 2/9=110/2;
 99//99;
 2/9=110/2;
 3/5=1,6=6,7=1,11=2,25=1,30=1,71=1,74=-5/1,2,3;
 4/5=5,16=3,69=1/1;
 5/5=2,38=5/2;
 7//1,2,3,16;
 1/18=20,19=15,26=3/3(-5);
 2/9=110/2;
 6/7=2,8=2,9=2,10=2,19=2,28=1/1;
 99/9=1/99;
 Leave Link    1 at Fri Jun  5 16:58:00 2026, MaxMem=  2516582400 cpu:               0.1 elap:               0.3
 (Enter /apl/gaussian/16c02/g16/l101.exe)
 -----------------------------------
 DPEPO - B3LYP/6-31G(d) optimization
 -----------------------------------
 Symbolic Z-matrix:
 Charge =  0 Multiplicity = 1
 O                    -5.58537   1.07912  -2.74541 
 P                    -5.1766    0.61485  -1.35658 
 C                    -6.05883  -0.88801  -0.89367 
 C                    -5.48163  -1.89176  -0.10196 
 C                    -6.21158  -3.03186   0.24066 
 C                    -7.52366  -3.18248  -0.20371 
 C                    -8.10865  -2.19529  -0.99308 
 C                    -7.38065  -1.05588  -1.33614 
 C                    -5.52838   1.88245  -0.12444 
 C                    -5.34643   3.22991  -0.47487 
 C                    -5.58879   4.24645   0.44911 
 C                    -6.0181    3.92868   1.73535 
 C                    -6.20802   2.59635   2.09662 
 C                    -5.96582   1.5777    1.17267 
 C                    -3.40475   0.25895  -1.30378 
 C                    -2.79833  -0.28567  -2.4505 
 C                    -1.43225  -0.60212  -2.48424 
 C                    -0.65709  -0.36561  -1.33564 
 C                    -1.28114   0.1757   -0.21802 
 C                    -2.63437   0.50355  -0.15415 
 O                    -0.38951   0.33552   0.79756 
 C                     0.81606  -0.0996    0.34043 
 C                     1.99965  -0.10567   1.07302 
 C                     3.15429  -0.58979   0.42998 
 P                     4.70235  -0.58472   1.36466 
 O                     4.45423  -0.97876   2.81132 
 C                     5.84183  -1.73534   0.57122 
 C                     6.7853   -1.32961  -0.38389 
 C                     7.63448  -2.2629   -0.98214 
 C                     7.55185  -3.60932  -0.63264 
 C                     6.62291  -4.02586   0.31784 
 C                     5.77418  -3.09468   0.91647 
 C                     5.40854   1.07083   1.25616 
 C                     5.11361   1.95109   0.20459 
 C                     5.69594   3.21936   0.15776 
 C                     6.5774    3.62188   1.15918 
 C                     6.87702   2.75918   2.21084 
 C                     6.29568   1.4921    2.25925 
 C                     3.07624  -1.04663  -0.89651 
 C                     1.86603  -1.02977  -1.60822 
 C                     0.71001  -0.54249  -0.97255 
 H                    -4.46027  -1.80034   0.2582 
 H                    -5.75498  -3.80544   0.85352 
 H                    -8.08955  -4.07174   0.0621 
 H                    -9.13045  -2.31289  -1.34509 
 H                    -7.8418   -0.29027  -1.95903 
 H                    -5.01772   3.48551  -1.48141 
 H                    -5.44558   5.28549   0.16341 
 H                    -6.20896   4.72021   2.45555 
 H                    -6.54805   2.35029   3.09972 
 H                    -6.12452   0.54736   1.48031 
 H                    -3.40438  -0.4623   -3.34009 
 H                    -0.98833  -1.02001  -3.38295 
 H                    -3.05117   0.92508   0.75263 
 H                     2.02545   0.24595   2.09976 
 H                     6.87392  -0.28511  -0.67137 
 H                     8.3656   -1.93837  -1.71872 
 H                     8.21657  -4.33376  -1.0964 
 H                     6.56211  -5.07455   0.59789 
 H                     5.05577  -3.42534   1.66572 
 H                     4.42799   1.66282  -0.58796 
 H                     5.45848   3.89679  -0.65899 
 H                     7.02707   4.61093   1.12316 
 H                     7.5594    3.07357   2.99656 
 H                     6.5279    0.82482   3.08847 
 H                     3.96137  -1.42852  -1.40159 
 H                     1.82653  -1.39002  -2.63229 
 
 ITRead=  0  0  0  0  0  0  0  0  0  0  0  0  0  0  0  0  0  0  0  0
 ITRead=  0  0  0  0  0  0  0  0  0  0  0  0  0  0  0  0  0  0  0  0
 ITRead=  0  0  0  0  0  0  0  0  0  0  0  0  0  0  0  0  0  0  0  0
 ITRead=  0  0  0  0  0  0  0
 MicOpt= -1 -1 -1 -1 -1 -1 -1 -1 -1 -1 -1 -1 -1 -1 -1 -1 -1 -1 -1 -1
 MicOpt= -1 -1 -1 -1 -1 -1 -1 -1 -1 -1 -1 -1 -1 -1 -1 -1 -1 -1 -1 -1
 MicOpt= -1 -1 -1 -1 -1 -1 -1 -1 -1 -1 -1 -1 -1 -1 -1 -1 -1 -1 -1 -1
 MicOpt= -1 -1 -1 -1 -1 -1 -1
 NAtoms=     67 NQM=       67 NQMF=       0 NMMI=      0 NMMIF=      0
                NMic=       0 NMicF=      0.
                    Isotopes and Nuclear Properties:
 (Nuclear quadrupole moments (NQMom) in fm**2, nuclear magnetic moments (NMagM)
  in nuclear magnetons)

  Atom         1           2           3           4           5           6           7           8           9          10
 IAtWgt=          16          31          12          12          12          12          12          12          12          12
 AtmWgt=  15.9949146  30.9737634  12.0000000  12.0000000  12.0000000  12.0000000  12.0000000  12.0000000  12.0000000  12.0000000
 NucSpn=           0           1           0           0           0           0           0           0           0           0
 AtZEff=  -0.0000000  -0.0000000  -0.0000000  -0.0000000  -0.0000000  -0.0000000  -0.0000000  -0.0000000  -0.0000000  -0.0000000
 NQMom=    0.0000000   0.0000000   0.0000000   0.0000000   0.0000000   0.0000000   0.0000000   0.0000000   0.0000000   0.0000000
 NMagM=    0.0000000   1.1316000   0.0000000   0.0000000   0.0000000   0.0000000   0.0000000   0.0000000   0.0000000   0.0000000
 AtZNuc=   8.0000000  15.0000000   6.0000000   6.0000000   6.0000000   6.0000000   6.0000000   6.0000000   6.0000000   6.0000000

  Atom        11          12          13          14          15          16          17          18          19          20
 IAtWgt=          12          12          12          12          12          12          12          12          12          12
 AtmWgt=  12.0000000  12.0000000  12.0000000  12.0000000  12.0000000  12.0000000  12.0000000  12.0000000  12.0000000  12.0000000
 NucSpn=           0           0           0           0           0           0           0           0           0           0
 AtZEff=  -0.0000000  -0.0000000  -0.0000000  -0.0000000  -0.0000000  -0.0000000  -0.0000000  -0.0000000  -0.0000000  -0.0000000
 NQMom=    0.0000000   0.0000000   0.0000000   0.0000000   0.0000000   0.0000000   0.0000000   0.0000000   0.0000000   0.0000000
 NMagM=    0.0000000   0.0000000   0.0000000   0.0000000   0.0000000   0.0000000   0.0000000   0.0000000   0.0000000   0.0000000
 AtZNuc=   6.0000000   6.0000000   6.0000000   6.0000000   6.0000000   6.0000000   6.0000000   6.0000000   6.0000000   6.0000000

  Atom        21          22          23          24          25          26          27          28          29          30
 IAtWgt=          16          12          12          12          31          16          12          12          12          12
 AtmWgt=  15.9949146  12.0000000  12.0000000  12.0000000  30.9737634  15.9949146  12.0000000  12.0000000  12.0000000  12.0000000
 NucSpn=           0           0           0           0           1           0           0           0           0           0
 AtZEff=  -0.0000000  -0.0000000  -0.0000000  -0.0000000  -0.0000000  -0.0000000  -0.0000000  -0.0000000  -0.0000000  -0.0000000
 NQMom=    0.0000000   0.0000000   0.0000000   0.0000000   0.0000000   0.0000000   0.0000000   0.0000000   0.0000000   0.0000000
 NMagM=    0.0000000   0.0000000   0.0000000   0.0000000   1.1316000   0.0000000   0.0000000   0.0000000   0.0000000   0.0000000
 AtZNuc=   8.0000000   6.0000000   6.0000000   6.0000000  15.0000000   8.0000000   6.0000000   6.0000000   6.0000000   6.0000000

  Atom        31          32          33          34          35          36          37          38          39          40
 IAtWgt=          12          12          12          12          12          12          12          12          12          12
 AtmWgt=  12.0000000  12.0000000  12.0000000  12.0000000  12.0000000  12.0000000  12.0000000  12.0000000  12.0000000  12.0000000
 NucSpn=           0           0           0           0           0           0           0           0           0           0
 AtZEff=  -0.0000000  -0.0000000  -0.0000000  -0.0000000  -0.0000000  -0.0000000  -0.0000000  -0.0000000  -0.0000000  -0.0000000
 NQMom=    0.0000000   0.0000000   0.0000000   0.0000000   0.0000000   0.0000000   0.0000000   0.0000000   0.0000000   0.0000000
 NMagM=    0.0000000   0.0000000   0.0000000   0.0000000   0.0000000   0.0000000   0.0000000   0.0000000   0.0000000   0.0000000
 AtZNuc=   6.0000000   6.0000000   6.0000000   6.0000000   6.0000000   6.0000000   6.0000000   6.0000000   6.0000000   6.0000000

  Atom        41          42          43          44          45          46          47          48          49          50
 IAtWgt=          12           1           1           1           1           1           1           1           1           1
 AtmWgt=  12.0000000   1.0078250   1.0078250   1.0078250   1.0078250   1.0078250   1.0078250   1.0078250   1.0078250   1.0078250
 NucSpn=           0           1           1           1           1           1           1           1           1           1
 AtZEff=  -0.0000000  -0.0000000  -0.0000000  -0.0000000  -0.0000000  -0.0000000  -0.0000000  -0.0000000  -0.0000000  -0.0000000
 NQMom=    0.0000000   0.0000000   0.0000000   0.0000000   0.0000000   0.0000000   0.0000000   0.0000000   0.0000000   0.0000000
 NMagM=    0.0000000   2.7928460   2.7928460   2.7928460   2.7928460   2.7928460   2.7928460   2.7928460   2.7928460   2.7928460
 AtZNuc=   6.0000000   1.0000000   1.0000000   1.0000000   1.0000000   1.0000000   1.0000000   1.0000000   1.0000000   1.0000000

  Atom        51          52          53          54          55          56          57          58          59          60
 IAtWgt=           1           1           1           1           1           1           1           1           1           1
 AtmWgt=   1.0078250   1.0078250   1.0078250   1.0078250   1.0078250   1.0078250   1.0078250   1.0078250   1.0078250   1.0078250
 NucSpn=           1           1           1           1           1           1           1           1           1           1
 AtZEff=  -0.0000000  -0.0000000  -0.0000000  -0.0000000  -0.0000000  -0.0000000  -0.0000000  -0.0000000  -0.0000000  -0.0000000
 NQMom=    0.0000000   0.0000000   0.0000000   0.0000000   0.0000000   0.0000000   0.0000000   0.0000000   0.0000000   0.0000000
 NMagM=    2.7928460   2.7928460   2.7928460   2.7928460   2.7928460   2.7928460   2.7928460   2.7928460   2.7928460   2.7928460
 AtZNuc=   1.0000000   1.0000000   1.0000000   1.0000000   1.0000000   1.0000000   1.0000000   1.0000000   1.0000000   1.0000000

  Atom        61          62          63          64          65          66          67
 IAtWgt=           1           1           1           1           1           1           1
 AtmWgt=   1.0078250   1.0078250   1.0078250   1.0078250   1.0078250   1.0078250   1.0078250
 NucSpn=           1           1           1           1           1           1           1
 AtZEff=  -0.0000000  -0.0000000  -0.0000000  -0.0000000  -0.0000000  -0.0000000  -0.0000000
 NQMom=    0.0000000   0.0000000   0.0000000   0.0000000   0.0000000   0.0000000   0.0000000
 NMagM=    2.7928460   2.7928460   2.7928460   2.7928460   2.7928460   2.7928460   2.7928460
 AtZNuc=   1.0000000   1.0000000   1.0000000   1.0000000   1.0000000   1.0000000   1.0000000
 Leave Link  101 at Fri Jun  5 16:58:00 2026, MaxMem=  2516582400 cpu:               0.2 elap:               0.2
 (Enter /apl/gaussian/16c02/g16/l103.exe)

 GradGradGradGradGradGradGradGradGradGradGradGradGradGradGradGradGradGrad
 Berny optimization.
 Initialization pass.
                           ----------------------------
                           !    Initial Parameters    !
                           ! (Angstroms and Degrees)  !
 --------------------------                            --------------------------
 ! Name  Definition              Value          Derivative Info.                !
 --------------------------------------------------------------------------------
 ! R1    R(1,2)                  1.5204         estimate D2E/DX2                !
 ! R2    R(2,3)                  1.8031         estimate D2E/DX2                !
 ! R3    R(2,9)                  1.8024         estimate D2E/DX2                !
 ! R4    R(2,15)                 1.808          estimate D2E/DX2                !
 ! R5    R(3,4)                  1.4027         estimate D2E/DX2                !
 ! R6    R(3,8)                  1.404          estimate D2E/DX2                !
 ! R7    R(4,5)                  1.3964         estimate D2E/DX2                !
 ! R8    R(4,42)                 1.0869         estimate D2E/DX2                !
 ! R9    R(5,6)                  1.3935         estimate D2E/DX2                !
 ! R10   R(5,43)                 1.0874         estimate D2E/DX2                !
 ! R11   R(6,7)                  1.3928         estimate D2E/DX2                !
 ! R12   R(6,44)                 1.0871         estimate D2E/DX2                !
 ! R13   R(7,8)                  1.395          estimate D2E/DX2                !
 ! R14   R(7,45)                 1.0871         estimate D2E/DX2                !
 ! R15   R(8,46)                 1.0894         estimate D2E/DX2                !
 ! R16   R(9,10)                 1.4041         estimate D2E/DX2                !
 ! R17   R(9,14)                 1.4024         estimate D2E/DX2                !
 ! R18   R(10,11)                1.3949         estimate D2E/DX2                !
 ! R19   R(10,47)                1.0893         estimate D2E/DX2                !
 ! R20   R(11,12)                1.3927         estimate D2E/DX2                !
 ! R21   R(11,48)                1.0871         estimate D2E/DX2                !
 ! R22   R(12,13)                1.3934         estimate D2E/DX2                !
 ! R23   R(12,49)                1.087          estimate D2E/DX2                !
 ! R24   R(13,14)                1.3964         estimate D2E/DX2                !
 ! R25   R(13,50)                1.0874         estimate D2E/DX2                !
 ! R26   R(14,51)                1.0869         estimate D2E/DX2                !
 ! R27   R(15,16)                1.4069         estimate D2E/DX2                !
 ! R28   R(15,20)                1.4053         estimate D2E/DX2                !
 ! R29   R(16,17)                1.4027         estimate D2E/DX2                !
 ! R30   R(16,52)                1.0908         estimate D2E/DX2                !
 ! R31   R(17,18)                1.4057         estimate D2E/DX2                !
 ! R32   R(17,53)                1.086          estimate D2E/DX2                !
 ! R33   R(18,19)                1.3898         estimate D2E/DX2                !
 ! R34   R(18,41)                1.4255         estimate D2E/DX2                !
 ! R35   R(19,20)                1.3938         estimate D2E/DX2                !
 ! R36   R(19,21)                1.3609         estimate D2E/DX2                !
 ! R37   R(20,54)                1.0834         estimate D2E/DX2                !
 ! R38   R(21,22)                1.3608         estimate D2E/DX2                !
 ! R39   R(22,23)                1.392          estimate D2E/DX2                !
 ! R40   R(22,41)                1.3897         estimate D2E/DX2                !
 ! R41   R(23,24)                1.4075         estimate D2E/DX2                !
 ! R42   R(23,55)                1.0856         estimate D2E/DX2                !
 ! R43   R(24,25)                1.8084         estimate D2E/DX2                !
 ! R44   R(24,39)                1.4051         estimate D2E/DX2                !
 ! R45   R(25,26)                1.5198         estimate D2E/DX2                !
 ! R46   R(25,27)                1.8033         estimate D2E/DX2                !
 ! R47   R(25,33)                1.8031         estimate D2E/DX2                !
 ! R48   R(27,28)                1.4025         estimate D2E/DX2                !
 ! R49   R(27,32)                1.4041         estimate D2E/DX2                !
 ! R50   R(28,29)                1.3964         estimate D2E/DX2                !
 ! R51   R(28,56)                1.087          estimate D2E/DX2                !
 ! R52   R(29,30)                1.3935         estimate D2E/DX2                !
 ! R53   R(29,57)                1.0874         estimate D2E/DX2                !
 ! R54   R(30,31)                1.3928         estimate D2E/DX2                !
 ! R55   R(30,58)                1.0871         estimate D2E/DX2                !
 ! R56   R(31,32)                1.3949         estimate D2E/DX2                !
 ! R57   R(31,59)                1.0871         estimate D2E/DX2                !
 ! R58   R(32,60)                1.0894         estimate D2E/DX2                !
 ! R59   R(33,34)                1.4027         estimate D2E/DX2                !
 ! R60   R(33,38)                1.4038         estimate D2E/DX2                !
 ! R61   R(34,35)                1.3963         estimate D2E/DX2                !
 ! R62   R(34,61)                1.0869         estimate D2E/DX2                !
 ! R63   R(35,36)                1.3935         estimate D2E/DX2                !
 ! R64   R(35,62)                1.0874         estimate D2E/DX2                !
 ! R65   R(36,37)                1.3928         estimate D2E/DX2                !
 ! R66   R(36,63)                1.0871         estimate D2E/DX2                !
 ! R67   R(37,38)                1.3949         estimate D2E/DX2                !
 ! R68   R(37,64)                1.0871         estimate D2E/DX2                !
 ! R69   R(38,65)                1.0894         estimate D2E/DX2                !
 ! R70   R(39,40)                1.4041         estimate D2E/DX2                !
 ! R71   R(39,66)                1.0883         estimate D2E/DX2                !
 ! R72   R(40,41)                1.4064         estimate D2E/DX2                !
 ! R73   R(40,67)                1.0863         estimate D2E/DX2                !
 ! A1    A(1,2,3)              110.9456         estimate D2E/DX2                !
 ! A2    A(1,2,9)              110.9305         estimate D2E/DX2                !
 ! A3    A(1,2,15)             110.5042         estimate D2E/DX2                !
 ! A4    A(3,2,9)              108.3712         estimate D2E/DX2                !
 ! A5    A(3,2,15)             107.9346         estimate D2E/DX2                !
 ! A6    A(9,2,15)             108.0437         estimate D2E/DX2                !
 ! A7    A(2,3,4)              122.6839         estimate D2E/DX2                !
 ! A8    A(2,3,8)              118.6462         estimate D2E/DX2                !
 ! A9    A(4,3,8)              118.6684         estimate D2E/DX2                !
 ! A10   A(3,4,5)              120.506          estimate D2E/DX2                !
 ! A11   A(3,4,42)             120.901          estimate D2E/DX2                !
 ! A12   A(5,4,42)             118.593          estimate D2E/DX2                !
 ! A13   A(4,5,6)              120.1454         estimate D2E/DX2                !
 ! A14   A(4,5,43)             119.9733         estimate D2E/DX2                !
 ! A15   A(6,5,43)             119.8811         estimate D2E/DX2                !
 ! A16   A(5,6,7)              119.9748         estimate D2E/DX2                !
 ! A17   A(5,6,44)             120.041          estimate D2E/DX2                !
 ! A18   A(7,6,44)             119.9838         estimate D2E/DX2                !
 ! A19   A(6,7,8)              119.9416         estimate D2E/DX2                !
 ! A20   A(6,7,45)             120.1078         estimate D2E/DX2                !
 ! A21   A(8,7,45)             119.9503         estimate D2E/DX2                !
 ! A22   A(3,8,7)              120.7635         estimate D2E/DX2                !
 ! A23   A(3,8,46)             119.6494         estimate D2E/DX2                !
 ! A24   A(7,8,46)             119.5863         estimate D2E/DX2                !
 ! A25   A(2,9,10)             118.6197         estimate D2E/DX2                !
 ! A26   A(2,9,14)             122.7065         estimate D2E/DX2                !
 ! A27   A(10,9,14)            118.6717         estimate D2E/DX2                !
 ! A28   A(9,10,11)            120.7643         estimate D2E/DX2                !
 ! A29   A(9,10,47)            119.6635         estimate D2E/DX2                !
 ! A30   A(11,10,47)           119.5712         estimate D2E/DX2                !
 ! A31   A(10,11,12)           119.935          estimate D2E/DX2                !
 ! A32   A(10,11,48)           119.9717         estimate D2E/DX2                !
 ! A33   A(12,11,48)           120.093          estimate D2E/DX2                !
 ! A34   A(11,12,13)           119.9744         estimate D2E/DX2                !
 ! A35   A(11,12,49)           119.9906         estimate D2E/DX2                !
 ! A36   A(13,12,49)           120.0344         estimate D2E/DX2                !
 ! A37   A(12,13,14)           120.1519         estimate D2E/DX2                !
 ! A38   A(12,13,50)           119.8786         estimate D2E/DX2                !
 ! A39   A(14,13,50)           119.9693         estimate D2E/DX2                !
 ! A40   A(9,14,13)            120.5017         estimate D2E/DX2                !
 ! A41   A(9,14,51)            120.8847         estimate D2E/DX2                !
 ! A42   A(13,14,51)           118.6135         estimate D2E/DX2                !
 ! A43   A(2,15,16)            118.3471         estimate D2E/DX2                !
 ! A44   A(2,15,20)            121.7925         estimate D2E/DX2                !
 ! A45   A(16,15,20)           119.859          estimate D2E/DX2                !
 ! A46   A(15,16,17)           121.785          estimate D2E/DX2                !
 ! A47   A(15,16,52)           119.2044         estimate D2E/DX2                !
 ! A48   A(17,16,52)           119.0098         estimate D2E/DX2                !
 ! A49   A(16,17,18)           118.6485         estimate D2E/DX2                !
 ! A50   A(16,17,53)           120.3197         estimate D2E/DX2                !
 ! A51   A(18,17,53)           121.0317         estimate D2E/DX2                !
 ! A52   A(17,18,19)           118.3587         estimate D2E/DX2                !
 ! A53   A(17,18,41)           135.7312         estimate D2E/DX2                !
 ! A54   A(19,18,41)           105.9101         estimate D2E/DX2                !
 ! A55   A(18,19,20)           124.361          estimate D2E/DX2                !
 ! A56   A(18,19,21)           110.5894         estimate D2E/DX2                !
 ! A57   A(20,19,21)           125.0495         estimate D2E/DX2                !
 ! A58   A(15,20,19)           116.9867         estimate D2E/DX2                !
 ! A59   A(15,20,54)           122.7886         estimate D2E/DX2                !
 ! A60   A(19,20,54)           120.2247         estimate D2E/DX2                !
 ! A61   A(19,21,22)           106.9907         estimate D2E/DX2                !
 ! A62   A(21,22,23)           125.3035         estimate D2E/DX2                !
 ! A63   A(21,22,41)           110.5905         estimate D2E/DX2                !
 ! A64   A(23,22,41)           124.106          estimate D2E/DX2                !
 ! A65   A(22,23,24)           117.2959         estimate D2E/DX2                !
 ! A66   A(22,23,55)           121.1018         estimate D2E/DX2                !
 ! A67   A(24,23,55)           121.6018         estimate D2E/DX2                !
 ! A68   A(23,24,25)           117.7207         estimate D2E/DX2                !
 ! A69   A(23,24,39)           119.8389         estimate D2E/DX2                !
 ! A70   A(25,24,39)           122.4392         estimate D2E/DX2                !
 ! A71   A(24,25,26)           110.5806         estimate D2E/DX2                !
 ! A72   A(24,25,27)           108.1634         estimate D2E/DX2                !
 ! A73   A(24,25,33)           107.8629         estimate D2E/DX2                !
 ! A74   A(26,25,27)           110.8892         estimate D2E/DX2                !
 ! A75   A(26,25,33)           111.0552         estimate D2E/DX2                !
 ! A76   A(27,25,33)           108.173          estimate D2E/DX2                !
 ! A77   A(25,27,28)           122.6924         estimate D2E/DX2                !
 ! A78   A(25,27,32)           118.625          estimate D2E/DX2                !
 ! A79   A(28,27,32)           118.6807         estimate D2E/DX2                !
 ! A80   A(27,28,29)           120.4964         estimate D2E/DX2                !
 ! A81   A(27,28,56)           120.8609         estimate D2E/DX2                !
 ! A82   A(29,28,56)           118.6423         estimate D2E/DX2                !
 ! A83   A(28,29,30)           120.149          estimate D2E/DX2                !
 ! A84   A(28,29,57)           119.9741         estimate D2E/DX2                !
 ! A85   A(30,29,57)           119.8762         estimate D2E/DX2                !
 ! A86   A(29,30,31)           119.9784         estimate D2E/DX2                !
 ! A87   A(29,30,58)           120.0425         estimate D2E/DX2                !
 ! A88   A(31,30,58)           119.9778         estimate D2E/DX2                !
 ! A89   A(30,31,32)           119.9365         estimate D2E/DX2                !
 ! A90   A(30,31,59)           120.1049         estimate D2E/DX2                !
 ! A91   A(32,31,59)           119.9577         estimate D2E/DX2                !
 ! A92   A(27,32,31)           120.7582         estimate D2E/DX2                !
 ! A93   A(27,32,60)           119.6512         estimate D2E/DX2                !
 ! A94   A(31,32,60)           119.589          estimate D2E/DX2                !
 ! A95   A(25,33,34)           122.6114         estimate D2E/DX2                !
 ! A96   A(25,33,38)           118.6874         estimate D2E/DX2                !
 ! A97   A(34,33,38)           118.6998         estimate D2E/DX2                !
 ! A98   A(33,34,35)           120.4933         estimate D2E/DX2                !
 ! A99   A(33,34,61)           120.853          estimate D2E/DX2                !
 ! A100  A(35,34,61)           118.6536         estimate D2E/DX2                !
 ! A101  A(34,35,36)           120.136          estimate D2E/DX2                !
 ! A102  A(34,35,62)           119.9983         estimate D2E/DX2                !
 ! A103  A(36,35,62)           119.8651         estimate D2E/DX2                !
 ! A104  A(35,36,37)           119.9841         estimate D2E/DX2                !
 ! A105  A(35,36,63)           120.0438         estimate D2E/DX2                !
 ! A106  A(37,36,63)           119.9712         estimate D2E/DX2                !
 ! A107  A(36,37,38)           119.9454         estimate D2E/DX2                !
 ! A108  A(36,37,64)           120.1064         estimate D2E/DX2                !
 ! A109  A(38,37,64)           119.9475         estimate D2E/DX2                !
 ! A110  A(33,38,37)           120.741          estimate D2E/DX2                !
 ! A111  A(33,38,65)           119.6561         estimate D2E/DX2                !
 ! A112  A(37,38,65)           119.6017         estimate D2E/DX2                !
 ! A113  A(24,39,40)           121.4994         estimate D2E/DX2                !
 ! A114  A(24,39,66)           120.4668         estimate D2E/DX2                !
 ! A115  A(40,39,66)           118.0336         estimate D2E/DX2                !
 ! A116  A(39,40,41)           118.9173         estimate D2E/DX2                !
 ! A117  A(39,40,67)           120.3448         estimate D2E/DX2                !
 ! A118  A(41,40,67)           120.7378         estimate D2E/DX2                !
 ! A119  A(18,41,22)           105.9191         estimate D2E/DX2                !
 ! A120  A(18,41,40)           135.739          estimate D2E/DX2                !
 ! A121  A(22,41,40)           118.3417         estimate D2E/DX2                !
 ! D1    D(1,2,3,4)            146.0072         estimate D2E/DX2                !
 ! D2    D(1,2,3,8)            -34.4471         estimate D2E/DX2                !
 ! D3    D(9,2,3,4)            -91.9757         estimate D2E/DX2                !
 ! D4    D(9,2,3,8)             87.57           estimate D2E/DX2                !
 ! D5    D(15,2,3,4)            24.8021         estimate D2E/DX2                !
 ! D6    D(15,2,3,8)          -155.6523         estimate D2E/DX2                !
 ! D7    D(1,2,9,10)           -36.7085         estimate D2E/DX2                !
 ! D8    D(1,2,9,14)           143.8198         estimate D2E/DX2                !
 ! D9    D(3,2,9,10)          -158.7348         estimate D2E/DX2                !
 ! D10   D(3,2,9,14)            21.7935         estimate D2E/DX2                !
 ! D11   D(15,2,9,10)           84.5577         estimate D2E/DX2                !
 ! D12   D(15,2,9,14)          -94.914          estimate D2E/DX2                !
 ! D13   D(1,2,15,16)          -34.8144         estimate D2E/DX2                !
 ! D14   D(1,2,15,20)          145.6119         estimate D2E/DX2                !
 ! D15   D(3,2,15,16)           86.665          estimate D2E/DX2                !
 ! D16   D(3,2,15,20)          -92.9087         estimate D2E/DX2                !
 ! D17   D(9,2,15,16)         -156.3448         estimate D2E/DX2                !
 ! D18   D(9,2,15,20)           24.0815         estimate D2E/DX2                !
 ! D19   D(2,3,4,5)            179.3511         estimate D2E/DX2                !
 ! D20   D(2,3,4,42)            -0.6069         estimate D2E/DX2                !
 ! D21   D(8,3,4,5)             -0.1945         estimate D2E/DX2                !
 ! D22   D(8,3,4,42)           179.8475         estimate D2E/DX2                !
 ! D23   D(2,3,8,7)           -179.3679         estimate D2E/DX2                !
 ! D24   D(2,3,8,46)             0.9619         estimate D2E/DX2                !
 ! D25   D(4,3,8,7)              0.1962         estimate D2E/DX2                !
 ! D26   D(4,3,8,46)          -179.4739         estimate D2E/DX2                !
 ! D27   D(3,4,5,6)              0.0495         estimate D2E/DX2                !
 ! D28   D(3,4,5,43)           179.8987         estimate D2E/DX2                !
 ! D29   D(42,4,5,6)          -179.9915         estimate D2E/DX2                !
 ! D30   D(42,4,5,43)           -0.1424         estimate D2E/DX2                !
 ! D31   D(4,5,6,7)              0.0981         estimate D2E/DX2                !
 ! D32   D(4,5,6,44)           179.8582         estimate D2E/DX2                !
 ! D33   D(43,5,6,7)          -179.7512         estimate D2E/DX2                !
 ! D34   D(43,5,6,44)            0.0089         estimate D2E/DX2                !
 ! D35   D(5,6,7,8)             -0.0967         estimate D2E/DX2                !
 ! D36   D(5,6,7,45)           179.6933         estimate D2E/DX2                !
 ! D37   D(44,6,7,8)          -179.8569         estimate D2E/DX2                !
 ! D38   D(44,6,7,45)           -0.0669         estimate D2E/DX2                !
 ! D39   D(6,7,8,3)             -0.0523         estimate D2E/DX2                !
 ! D40   D(6,7,8,46)           179.6181         estimate D2E/DX2                !
 ! D41   D(45,7,8,3)          -179.8426         estimate D2E/DX2                !
 ! D42   D(45,7,8,46)           -0.1722         estimate D2E/DX2                !
 ! D43   D(2,9,10,11)         -179.1723         estimate D2E/DX2                !
 ! D44   D(2,9,10,47)            1.1796         estimate D2E/DX2                !
 ! D45   D(14,9,10,11)           0.321          estimate D2E/DX2                !
 ! D46   D(14,9,10,47)        -179.3271         estimate D2E/DX2                !
 ! D47   D(2,9,14,13)          179.1499         estimate D2E/DX2                !
 ! D48   D(2,9,14,51)           -0.9176         estimate D2E/DX2                !
 ! D49   D(10,9,14,13)          -0.3215         estimate D2E/DX2                !
 ! D50   D(10,9,14,51)         179.611          estimate D2E/DX2                !
 ! D51   D(9,10,11,12)          -0.0864         estimate D2E/DX2                !
 ! D52   D(9,10,11,48)        -179.882          estimate D2E/DX2                !
 ! D53   D(47,10,11,12)        179.562          estimate D2E/DX2                !
 ! D54   D(47,10,11,48)         -0.2337         estimate D2E/DX2                !
 ! D55   D(10,11,12,13)         -0.1529         estimate D2E/DX2                !
 ! D56   D(10,11,12,49)       -179.8893         estimate D2E/DX2                !
 ! D57   D(48,11,12,13)        179.6425         estimate D2E/DX2                !
 ! D58   D(48,11,12,49)         -0.094          estimate D2E/DX2                !
 ! D59   D(11,12,13,14)          0.1518         estimate D2E/DX2                !
 ! D60   D(11,12,13,50)       -179.6926         estimate D2E/DX2                !
 ! D61   D(49,12,13,14)        179.8882         estimate D2E/DX2                !
 ! D62   D(49,12,13,50)          0.0437         estimate D2E/DX2                !
 ! D63   D(12,13,14,9)           0.0888         estimate D2E/DX2                !
 ! D64   D(12,13,14,51)       -179.8452         estimate D2E/DX2                !
 ! D65   D(50,13,14,9)         179.9331         estimate D2E/DX2                !
 ! D66   D(50,13,14,51)         -0.0009         estimate D2E/DX2                !
 ! D67   D(2,15,16,17)        -179.3343         estimate D2E/DX2                !
 ! D68   D(2,15,16,52)           0.9986         estimate D2E/DX2                !
 ! D69   D(20,15,16,17)          0.2479         estimate D2E/DX2                !
 ! D70   D(20,15,16,52)       -179.4192         estimate D2E/DX2                !
 ! D71   D(2,15,20,19)         179.1857         estimate D2E/DX2                !
 ! D72   D(2,15,20,54)          -0.6983         estimate D2E/DX2                !
 ! D73   D(16,15,20,19)         -0.3817         estimate D2E/DX2                !
 ! D74   D(16,15,20,54)        179.7343         estimate D2E/DX2                !
 ! D75   D(15,16,17,18)          0.04           estimate D2E/DX2                !
 ! D76   D(15,16,17,53)       -179.8891         estimate D2E/DX2                !
 ! D77   D(52,16,17,18)        179.7076         estimate D2E/DX2                !
 ! D78   D(52,16,17,53)         -0.2215         estimate D2E/DX2                !
 ! D79   D(16,17,18,19)         -0.1744         estimate D2E/DX2                !
 ! D80   D(16,17,18,41)        179.9152         estimate D2E/DX2                !
 ! D81   D(53,17,18,19)        179.7543         estimate D2E/DX2                !
 ! D82   D(53,17,18,41)         -0.1562         estimate D2E/DX2                !
 ! D83   D(17,18,19,20)          0.0259         estimate D2E/DX2                !
 ! D84   D(17,18,19,21)        179.8865         estimate D2E/DX2                !
 ! D85   D(41,18,19,20)        179.9609         estimate D2E/DX2                !
 ! D86   D(41,18,19,21)         -0.1785         estimate D2E/DX2                !
 ! D87   D(17,18,41,22)       -179.9051         estimate D2E/DX2                !
 ! D88   D(17,18,41,40)         -0.049          estimate D2E/DX2                !
 ! D89   D(19,18,41,22)          0.1768         estimate D2E/DX2                !
 ! D90   D(19,18,41,40)       -179.967          estimate D2E/DX2                !
 ! D91   D(18,19,20,15)          0.2542         estimate D2E/DX2                !
 ! D92   D(18,19,20,54)       -179.8586         estimate D2E/DX2                !
 ! D93   D(21,19,20,15)       -179.5864         estimate D2E/DX2                !
 ! D94   D(21,19,20,54)          0.3008         estimate D2E/DX2                !
 ! D95   D(18,19,21,22)          0.107          estimate D2E/DX2                !
 ! D96   D(20,19,21,22)        179.9664         estimate D2E/DX2                !
 ! D97   D(19,21,22,23)        179.9632         estimate D2E/DX2                !
 ! D98   D(19,21,22,41)          0.0114         estimate D2E/DX2                !
 ! D99   D(21,22,23,24)       -179.7567         estimate D2E/DX2                !
 ! D100  D(21,22,23,55)          0.4858         estimate D2E/DX2                !
 ! D101  D(41,22,23,24)          0.1888         estimate D2E/DX2                !
 ! D102  D(41,22,23,55)       -179.5687         estimate D2E/DX2                !
 ! D103  D(21,22,41,18)         -0.1194         estimate D2E/DX2                !
 ! D104  D(21,22,41,40)        179.9947         estimate D2E/DX2                !
 ! D105  D(23,22,41,18)        179.9281         estimate D2E/DX2                !
 ! D106  D(23,22,41,40)          0.0422         estimate D2E/DX2                !
 ! D107  D(22,23,24,25)        179.2971         estimate D2E/DX2                !
 ! D108  D(22,23,24,39)         -0.3059         estimate D2E/DX2                !
 ! D109  D(55,23,24,25)         -0.9467         estimate D2E/DX2                !
 ! D110  D(55,23,24,39)        179.4504         estimate D2E/DX2                !
 ! D111  D(23,24,25,26)         39.0971         estimate D2E/DX2                !
 ! D112  D(23,24,25,27)        160.7002         estimate D2E/DX2                !
 ! D113  D(23,24,25,33)        -82.5177         estimate D2E/DX2                !
 ! D114  D(39,24,25,26)       -141.3109         estimate D2E/DX2                !
 ! D115  D(39,24,25,27)        -19.7079         estimate D2E/DX2                !
 ! D116  D(39,24,25,33)         97.0743         estimate D2E/DX2                !
 ! D117  D(23,24,39,40)          0.2044         estimate D2E/DX2                !
 ! D118  D(23,24,39,66)       -179.6375         estimate D2E/DX2                !
 ! D119  D(25,24,39,40)       -179.3791         estimate D2E/DX2                !
 ! D120  D(25,24,39,66)          0.7789         estimate D2E/DX2                !
 ! D121  D(24,25,27,28)         94.039          estimate D2E/DX2                !
 ! D122  D(24,25,27,32)        -85.4471         estimate D2E/DX2                !
 ! D123  D(26,25,27,28)       -144.5485         estimate D2E/DX2                !
 ! D124  D(26,25,27,32)         35.9654         estimate D2E/DX2                !
 ! D125  D(33,25,27,28)        -22.5424         estimate D2E/DX2                !
 ! D126  D(33,25,27,32)        157.9715         estimate D2E/DX2                !
 ! D127  D(24,25,33,34)        -24.246          estimate D2E/DX2                !
 ! D128  D(24,25,33,38)        156.1928         estimate D2E/DX2                !
 ! D129  D(26,25,33,34)       -145.566          estimate D2E/DX2                !
 ! D130  D(26,25,33,38)         34.8729         estimate D2E/DX2                !
 ! D131  D(27,25,33,34)         92.5299         estimate D2E/DX2                !
 ! D132  D(27,25,33,38)        -87.0312         estimate D2E/DX2                !
 ! D133  D(25,27,28,29)       -179.183          estimate D2E/DX2                !
 ! D134  D(25,27,28,56)          1.0329         estimate D2E/DX2                !
 ! D135  D(32,27,28,29)          0.3028         estimate D2E/DX2                !
 ! D136  D(32,27,28,56)       -179.4813         estimate D2E/DX2                !
 ! D137  D(25,27,32,31)        179.1903         estimate D2E/DX2                !
 ! D138  D(25,27,32,60)         -1.2599         estimate D2E/DX2                !
 ! D139  D(28,27,32,31)         -0.3167         estimate D2E/DX2                !
 ! D140  D(28,27,32,60)        179.2331         estimate D2E/DX2                !
 ! D141  D(27,28,29,30)         -0.0671         estimate D2E/DX2                !
 ! D142  D(27,28,29,57)       -179.7524         estimate D2E/DX2                !
 ! D143  D(56,28,29,30)        179.7218         estimate D2E/DX2                !
 ! D144  D(56,28,29,57)          0.0365         estimate D2E/DX2                !
 ! D145  D(28,29,30,31)         -0.1619         estimate D2E/DX2                !
 ! D146  D(28,29,30,58)       -179.7448         estimate D2E/DX2                !
 ! D147  D(57,29,30,31)        179.5237         estimate D2E/DX2                !
 ! D148  D(57,29,30,58)         -0.0592         estimate D2E/DX2                !
 ! D149  D(29,30,31,32)          0.1486         estimate D2E/DX2                !
 ! D150  D(29,30,31,59)       -179.5081         estimate D2E/DX2                !
 ! D151  D(58,30,31,32)        179.7318         estimate D2E/DX2                !
 ! D152  D(58,30,31,59)          0.0751         estimate D2E/DX2                !
 ! D153  D(30,31,32,27)          0.0935         estimate D2E/DX2                !
 ! D154  D(30,31,32,60)       -179.4565         estimate D2E/DX2                !
 ! D155  D(59,31,32,27)        179.7507         estimate D2E/DX2                !
 ! D156  D(59,31,32,60)          0.2007         estimate D2E/DX2                !
 ! D157  D(25,33,34,35)       -179.3799         estimate D2E/DX2                !
 ! D158  D(25,33,34,61)          0.7263         estimate D2E/DX2                !
 ! D159  D(38,33,34,35)          0.1812         estimate D2E/DX2                !
 ! D160  D(38,33,34,61)       -179.7126         estimate D2E/DX2                !
 ! D161  D(25,33,38,37)        179.3724         estimate D2E/DX2                !
 ! D162  D(25,33,38,65)         -1.0369         estimate D2E/DX2                !
 ! D163  D(34,33,38,37)         -0.2061         estimate D2E/DX2                !
 ! D164  D(34,33,38,65)        179.3845         estimate D2E/DX2                !
 ! D165  D(33,34,35,36)         -0.0198         estimate D2E/DX2                !
 ! D166  D(33,34,35,62)       -179.7502         estimate D2E/DX2                !
 ! D167  D(61,34,35,36)        179.8763         estimate D2E/DX2                !
 ! D168  D(61,34,35,62)          0.146          estimate D2E/DX2                !
 ! D169  D(34,35,36,37)         -0.1209         estimate D2E/DX2                !
 ! D170  D(34,35,36,63)       -179.7764         estimate D2E/DX2                !
 ! D171  D(62,35,36,37)        179.6098         estimate D2E/DX2                !
 ! D172  D(62,35,36,63)         -0.0457         estimate D2E/DX2                !
 ! D173  D(35,36,37,38)          0.0964         estimate D2E/DX2                !
 ! D174  D(35,36,37,64)       -179.6027         estimate D2E/DX2                !
 ! D175  D(63,36,37,38)        179.7522         estimate D2E/DX2                !
 ! D176  D(63,36,37,64)          0.053          estimate D2E/DX2                !
 ! D177  D(36,37,38,33)          0.069          estimate D2E/DX2                !
 ! D178  D(36,37,38,65)       -179.5219         estimate D2E/DX2                !
 ! D179  D(64,37,38,33)        179.7686         estimate D2E/DX2                !
 ! D180  D(64,37,38,65)          0.1777         estimate D2E/DX2                !
 ! D181  D(24,39,40,41)          0.0321         estimate D2E/DX2                !
 ! D182  D(24,39,40,67)       -179.8364         estimate D2E/DX2                !
 ! D183  D(66,39,40,41)        179.8777         estimate D2E/DX2                !
 ! D184  D(66,39,40,67)          0.0093         estimate D2E/DX2                !
 ! D185  D(39,40,41,18)       -179.996          estimate D2E/DX2                !
 ! D186  D(39,40,41,22)         -0.1531         estimate D2E/DX2                !
 ! D187  D(67,40,41,18)         -0.128          estimate D2E/DX2                !
 ! D188  D(67,40,41,22)        179.7148         estimate D2E/DX2                !
 --------------------------------------------------------------------------------
 Trust Radius=3.00D-01 FncErr=1.00D-07 GrdErr=1.00D-06 EigMax=2.50D+02 EigMin=1.00D-04
 Number of steps in this run=    392 maximum allowed number of steps=    402.
 GradGradGradGradGradGradGradGradGradGradGradGradGradGradGradGradGradGrad

 Leave Link  103 at Fri Jun  5 16:58:00 2026, MaxMem=  2516582400 cpu:               0.1 elap:               0.1
 (Enter /apl/gaussian/16c02/g16/l202.exe)
 Stoichiometry    C36H26O3P2
 Framework group  C1[X(C36H26O3P2)]
 Deg. of freedom   195
 Full point group                 C1      NOp   1
 Largest Abelian subgroup         C1      NOp   1
 Largest concise Abelian subgroup C1      NOp   1
                         Standard orientation:                         
 ---------------------------------------------------------------------
 Center     Atomic      Atomic             Coordinates (Angstroms)
 Number     Number       Type             X           Y           Z
 ---------------------------------------------------------------------
      1          8           0        5.818601    0.033146    2.333905
      2         15           0        5.253923    0.005616    0.922566
      3          6           0        5.989570   -1.329801   -0.040090
      4          6           0        5.277409   -2.040076   -1.017743
      5          6           0        5.896547   -3.057808   -1.746391
      6          6           0        7.231385   -3.377724   -1.506454
      7          6           0        7.949993   -2.682900   -0.536567
      8          6           0        7.332780   -1.666023    0.192088
      9          6           0        5.572548    1.561959    0.071099
     10          6           0        5.512159    2.756039    0.807366
     11          6           0        5.734102    3.987016    0.189903
     12          6           0        6.021177    4.039733   -1.171906
     13          6           0        6.089475    2.862982   -1.915054
     14          6           0        5.867545    1.629988   -1.298231
     15          6           0        3.465309   -0.255708    0.961066
     16          6           0        2.933041   -1.086602    1.963874
     17          6           0        1.558156   -1.349843    2.052539
     18          6           0        0.697410   -0.763357    1.108490
     19          6           0        1.249673    0.055317    0.130580
     20          6           0        2.609749    0.338641    0.017820
     21          8           0        0.280468    0.534152   -0.696043
     22          6           0       -0.903608    0.029115   -0.254909
     23          6           0       -2.147623    0.277917   -0.827746
     24          6           0       -3.267135   -0.329622   -0.228867
     25         15           0       -4.891204    0.001431   -0.952017
     26          8           0       -4.803957    0.034147   -2.468916
     27          6           0       -6.025329   -1.287706   -0.400852
     28          6           0       -6.848074   -1.141953    0.725570
     29          6           0       -7.697570   -2.177185    1.121399
     30          6           0       -7.735709   -3.366965    0.396961
     31          6           0       -6.927675   -3.523868   -0.726565
     32          6           0       -6.078804   -2.490528   -1.123313
     33          6           0       -5.474668    1.579105   -0.302519
     34          6           0       -5.027060    2.106244    0.917897
     35          6           0       -5.518451    3.326831    1.385317
     36          6           0       -6.460386    4.033368    0.640060
     37          6           0       -6.911525    3.523222   -0.574949
     38          6           0       -6.421182    2.304259   -1.043432
     39          6           0       -3.097004   -1.153221    0.896788
     40          6           0       -1.827764   -1.386612    1.449941
     41          6           0       -0.705995   -0.778242    0.858835
     42          1           0        4.235334   -1.811626   -1.225432
     43          1           0        5.335765   -3.604006   -2.501172
     44          1           0        7.711005   -4.171835   -2.073053
     45          1           0        8.990046   -2.934051   -0.344131
     46          1           0        7.898487   -1.130511    0.953675
     47          1           0        5.295164    2.721150    1.874236
     48          1           0        5.686078    4.903408    0.772697
     49          1           0        6.196060    4.998374   -1.653631
     50          1           0        6.318658    2.905582   -2.977145
     51          1           0        5.929511    0.727707   -1.901117
     52          1           0        3.605772   -1.534781    2.696295
     53          1           0        1.172732   -1.993604    2.837652
     54          1           0        2.967718    0.989202   -0.771034
     55          1           0       -2.245050    0.912255   -1.703319
     56          1           0       -6.841344   -0.222819    1.305768
     57          1           0       -8.334810   -2.053532    1.993768
     58          1           0       -8.400697   -4.170160    0.704221
     59          1           0       -6.961645   -4.448158   -1.297894
     60          1           0       -5.455758   -2.615926   -2.008137
     61          1           0       -4.291520    1.576484    1.517608
     62          1           0       -5.162863    3.729964    2.330528
     63          1           0       -6.839221    4.985220    1.003614
     64          1           0       -7.641510    4.075878   -1.161071
     65          1           0       -6.772047    1.914263   -1.998196
     66          1           0       -3.954791   -1.632766    1.364377
     67          1           0       -1.717536   -2.028932    2.319049
 ---------------------------------------------------------------------
 Rotational constants (GHZ):           0.1547036           0.0303610           0.0275371
 Leave Link  202 at Fri Jun  5 16:58:01 2026, MaxMem=  2516582400 cpu:               0.0 elap:               0.1
 (Enter /apl/gaussian/16c02/g16/l301.exe)
 Standard basis: 6-31G(d) (6D, 7F)
 Ernie: Thresh=  0.10000D-02 Tol=  0.10000D-05 Strict=F.
 There are   675 symmetry adapted cartesian basis functions of A   symmetry.
 There are   675 symmetry adapted basis functions of A   symmetry.
   675 basis functions,  1300 primitive gaussians,   675 cartesian basis functions
   148 alpha electrons      148 beta electrons
       nuclear repulsion energy      4513.3392285505 Hartrees.
 IExCor=  402 DFT=T Ex+Corr=B3LYP ExCW=0 ScaHFX=  0.200000
 ScaDFX=  0.800000  0.720000  1.000000  0.810000 ScalE2=  1.000000  1.000000
 IRadAn=      5 IRanWt=     -1 IRanGd=            0 ICorTp=0 IEmpDi=  4
 NAtoms=   67 NActive=   67 NUniq=   67 SFac= 1.00D+00 NAtFMM=   60 NAOKFM=T Big=T
 Integral buffers will be    131072 words long.
 Raffenetti 2 integral format.
 Two-electron integral symmetry is turned on.
 Leave Link  301 at Fri Jun  5 16:58:01 2026, MaxMem=  2516582400 cpu:               0.1 elap:               0.1
 (Enter /apl/gaussian/16c02/g16/l302.exe)
 NPDir=0 NMtPBC=     1 NCelOv=     1 NCel=       1 NClECP=     1 NCelD=      1
         NCelK=      1 NCelE2=     1 NClLst=     1 CellRange=     0.0.
 One-electron integrals computed using PRISM.
 One-electron integral symmetry used in STVInt
 NBasis=   675 RedAO= T EigKep=  2.60D-04  NBF=   675
 NBsUse=   675 1.00D-06 EigRej= -1.00D+00 NBFU=   675
 Precomputing XC quadrature grid using
 IXCGrd= 4 IRadAn=           5 IRanWt=          -1 IRanGd=           0 AccXCQ= 0.00D+00.
 Generated NRdTot=       0 NPtTot=           0 NUsed=           0 NTot=          32
 NSgBfM=   648   648   648   648   648 MxSgAt=    67 MxSgA2=    67.
 Leave Link  302 at Fri Jun  5 16:58:02 2026, MaxMem=  2516582400 cpu:               8.3 elap:               0.8
 (Enter /apl/gaussian/16c02/g16/l303.exe)
 DipDrv:  MaxL=1.
 Leave Link  303 at Fri Jun  5 16:58:02 2026, MaxMem=  2516582400 cpu:               0.1 elap:               0.1
 (Enter /apl/gaussian/16c02/g16/l401.exe)
 ExpMin= 9.98D-02 ExpMax= 1.94D+04 ExpMxC= 2.91D+03 IAcc=3 IRadAn=         5 AccDes= 0.00D+00
 Harris functional with IExCor=  402 and IRadAn=       5 diagonalized for initial guess.
 HarFok:  IExCor=  402 AccDes= 0.00D+00 IRadAn=         5 IDoV= 1 UseB2=F ITyADJ=14
 ICtDFT=  3500011 ScaDFX=  1.000000  1.000000  1.000000  1.000000
 FoFCou: FMM=F IPFlag=           0 FMFlag=      100000 FMFlg1=        2001
         NFxFlg=           0 DoJE=T BraDBF=F KetDBF=T FulRan=T
         wScrn=  0.000000 ICntrl=       500 IOpCl=  0 I1Cent=   200000004 NGrid=           0
         NMat0=    1 NMatS0=      1 NMatT0=    0 NMatD0=    1 NMtDS0=    0 NMtDT0=    0
 Petite list used in FoFCou.
 Harris En= -2296.01011103678    
 JPrj=0 DoOrth=F DoCkMO=F.
 Leave Link  401 at Fri Jun  5 16:58:05 2026, MaxMem=  2516582400 cpu:              38.4 elap:               2.7
 (Enter /apl/gaussian/16c02/g16/l502.exe)
 Integral symmetry usage will be decided dynamically.
 Closed shell SCF:
 Using DIIS extrapolation, IDIIS=  1040.
 NGot=  2516582400 LenX=  2515651623 LenY=  2515195323
 Requested convergence on RMS density matrix=1.00D-08 within 128 cycles.
 Requested convergence on MAX density matrix=1.00D-06.
 Requested convergence on             energy=1.00D-06.
 No special actions if energy rises.
 Fock matrices will be formed incrementally for  20 cycles.
 Integral accuracy reduced to 1.0D-05 until final iterations.

 Cycle   1  Pass 0  IDiag  1:
 FoFJK:  IHMeth= 1 ICntrl=       0 DoSepK=F KAlg= 0 I1Cent=           0 FoldK=F
 IRaf= 730000000 NMat=       1 IRICut=       1 DoRegI=T DoRafI=F ISym2E= 0 IDoP0=0 IntGTp=1.
 FoFCou: FMM=T IPFlag=           0 FMFlag=      100000 FMFlg1=        2001
         NFxFlg=           0 DoJE=F BraDBF=F KetDBF=F FulRan=T
         wScrn=  0.000000 ICntrl=         0 IOpCl=  0 I1Cent=           0 NGrid=           0
         NMat0=    1 NMatS0=      1 NMatT0=    0 NMatD0=    1 NMtDS0=    0 NMtDT0=    0
 Symmetry not used in FoFCou.
 FMM levels:  10  Number of levels for PrismC:   9
 E= -2294.85091009614    
 DIIS: error= 2.89D-02 at cycle   1 NSaved=   1.
 NSaved= 1 IEnMin= 1 EnMin= -2294.85091009614     IErMin= 1 ErrMin= 2.89D-02
 ErrMax= 2.89D-02  0.00D+00 EMaxC= 1.00D-01 BMatC= 1.11D+00 BMatP= 1.11D+00
 IDIUse=3 WtCom= 7.11D-01 WtEn= 2.89D-01
 Coeff-Com:  0.100D+01
 Coeff-En:   0.100D+01
 Coeff:      0.100D+01
 Gap=     0.186 Goal=   None    Shift=    0.000
 GapD=    0.186 DampG=1.000 DampE=0.500 DampFc=0.5000 IDamp=-1.
 Damping current iteration by 5.00D-01
 RMSDP=4.95D-03 MaxDP=3.16D-01              OVMax= 3.86D-01

 Cycle   2  Pass 0  IDiag  1:
 RMSU=  2.46D-03    CP:  9.79D-01
 E= -2295.11189663337     Delta-E=       -0.260986537234 Rises=F Damp=T
 DIIS: error= 2.45D-02 at cycle   2 NSaved=   2.
 NSaved= 2 IEnMin= 2 EnMin= -2295.11189663337     IErMin= 2 ErrMin= 2.45D-02
 ErrMax= 2.45D-02  0.00D+00 EMaxC= 1.00D-01 BMatC= 2.11D-01 BMatP= 1.11D+00
 IDIUse=3 WtCom= 7.55D-01 WtEn= 2.45D-01
 Coeff-Com:  0.225D+00 0.775D+00
 Coeff-En:   0.359D+00 0.641D+00
 Coeff:      0.258D+00 0.742D+00
 Gap=     0.214 Goal=   None    Shift=    0.000
 RMSDP=1.92D-03 MaxDP=1.27D-01 DE=-2.61D-01 OVMax= 2.38D-01

 Cycle   3  Pass 0  IDiag  1:
 RMSU=  1.56D-03    CP:  9.59D-01  5.54D-01
 E= -2295.72204512996     Delta-E=       -0.610148496585 Rises=F Damp=F
 DIIS: error= 2.50D-02 at cycle   3 NSaved=   3.
 NSaved= 3 IEnMin= 3 EnMin= -2295.72204512996     IErMin= 2 ErrMin= 2.45D-02
 ErrMax= 2.50D-02  0.00D+00 EMaxC= 1.00D-01 BMatC= 2.18D-01 BMatP= 2.11D-01
 IDIUse=3 WtCom= 7.50D-01 WtEn= 2.50D-01
 Coeff-Com:  0.627D-01 0.491D+00 0.447D+00
 Coeff-En:   0.000D+00 0.000D+00 0.100D+01
 Coeff:      0.470D-01 0.368D+00 0.585D+00
 Gap=     0.175 Goal=   None    Shift=    0.000
 RMSDP=1.37D-03 MaxDP=8.52D-02 DE=-6.10D-01 OVMax= 1.33D-01

 Cycle   4  Pass 0  IDiag  1:
 RMSU=  7.78D-04    CP:  9.67D-01  8.01D-01  3.96D-01
 E= -2295.84494719293     Delta-E=       -0.122902062967 Rises=F Damp=F
 DIIS: error= 1.55D-02 at cycle   4 NSaved=   4.
 NSaved= 4 IEnMin= 4 EnMin= -2295.84494719293     IErMin= 4 ErrMin= 1.55D-02
 ErrMax= 1.55D-02  0.00D+00 EMaxC= 1.00D-01 BMatC= 8.93D-02 BMatP= 2.11D-01
 IDIUse=3 WtCom= 8.45D-01 WtEn= 1.55D-01
 Coeff-Com:  0.223D-01 0.766D-01 0.380D+00 0.521D+00
 Coeff-En:   0.000D+00 0.000D+00 0.324D+00 0.676D+00
 Coeff:      0.188D-01 0.647D-01 0.371D+00 0.546D+00
 Gap=     0.181 Goal=   None    Shift=    0.000
 RMSDP=5.98D-04 MaxDP=3.49D-02 DE=-1.23D-01 OVMax= 5.03D-02

 Cycle   5  Pass 0  IDiag  1:
 RMSU=  2.06D-04    CP:  9.65D-01  6.89D-01  6.31D-01  5.82D-01
 E= -2295.91882500451     Delta-E=       -0.073877811580 Rises=F Damp=F
 DIIS: error= 2.51D-03 at cycle   5 NSaved=   5.
 NSaved= 5 IEnMin= 5 EnMin= -2295.91882500451     IErMin= 5 ErrMin= 2.51D-03
 ErrMax= 2.51D-03  0.00D+00 EMaxC= 1.00D-01 BMatC= 5.49D-03 BMatP= 8.93D-02
 IDIUse=3 WtCom= 9.75D-01 WtEn= 2.51D-02
 Coeff-Com:  0.649D-02 0.487D-02 0.192D+00 0.349D+00 0.448D+00
 Coeff-En:   0.000D+00 0.000D+00 0.000D+00 0.229D-01 0.977D+00
 Coeff:      0.633D-02 0.474D-02 0.187D+00 0.340D+00 0.462D+00
 Gap=     0.172 Goal=   None    Shift=    0.000
 RMSDP=1.63D-04 MaxDP=5.57D-03 DE=-7.39D-02 OVMax= 2.39D-02

 Cycle   6  Pass 0  IDiag  1:
 RMSU=  8.75D-05    CP:  9.65D-01  7.00D-01  6.13D-01  6.38D-01  3.96D-01
 E= -2295.92420213520     Delta-E=       -0.005377130692 Rises=F Damp=F
 DIIS: error= 9.28D-04 at cycle   6 NSaved=   6.
 NSaved= 6 IEnMin= 6 EnMin= -2295.92420213520     IErMin= 6 ErrMin= 9.28D-04
 ErrMax= 9.28D-04  0.00D+00 EMaxC= 1.00D-01 BMatC= 6.59D-04 BMatP= 5.49D-03
 IDIUse=3 WtCom= 9.91D-01 WtEn= 9.28D-03
 Coeff-Com:  0.728D-03-0.838D-02 0.463D-01 0.105D+00 0.294D+00 0.562D+00
 Coeff-En:   0.000D+00 0.000D+00 0.000D+00 0.000D+00 0.137D+00 0.863D+00
 Coeff:      0.722D-03-0.831D-02 0.459D-01 0.104D+00 0.292D+00 0.565D+00
 Gap=     0.172 Goal=   None    Shift=    0.000
 RMSDP=5.57D-05 MaxDP=3.33D-03 DE=-5.38D-03 OVMax= 6.86D-03

 Cycle   7  Pass 0  IDiag  1:
 RMSU=  2.36D-05    CP:  9.64D-01  7.01D-01  6.16D-01  6.40D-01  5.44D-01
                    CP:  5.44D-01
 E= -2295.92493035671     Delta-E=       -0.000728221511 Rises=F Damp=F
 DIIS: error= 1.74D-04 at cycle   7 NSaved=   7.
 NSaved= 7 IEnMin= 7 EnMin= -2295.92493035671     IErMin= 7 ErrMin= 1.74D-04
 ErrMax= 1.74D-04  0.00D+00 EMaxC= 1.00D-01 BMatC= 3.44D-05 BMatP= 6.59D-04
 IDIUse=3 WtCom= 9.98D-01 WtEn= 1.74D-03
 Coeff-Com:  0.363D-03-0.448D-02 0.134D-01 0.322D-01 0.124D+00 0.302D+00
 Coeff-Com:  0.532D+00
 Coeff-En:   0.000D+00 0.000D+00 0.000D+00 0.000D+00 0.000D+00 0.000D+00
 Coeff-En:   0.100D+01
 Coeff:      0.363D-03-0.448D-02 0.134D-01 0.322D-01 0.124D+00 0.302D+00
 Coeff:      0.533D+00
 Gap=     0.172 Goal=   None    Shift=    0.000
 RMSDP=1.33D-05 MaxDP=7.00D-04 DE=-7.28D-04 OVMax= 1.88D-03

 Cycle   8  Pass 0  IDiag  1:
 RMSU=  7.80D-06    CP:  9.65D-01  7.00D-01  6.16D-01  6.39D-01  5.38D-01
                    CP:  6.00D-01  6.15D-01
 E= -2295.92496413533     Delta-E=       -0.000033778620 Rises=F Damp=F
 DIIS: error= 7.07D-05 at cycle   8 NSaved=   8.
 NSaved= 8 IEnMin= 8 EnMin= -2295.92496413533     IErMin= 8 ErrMin= 7.07D-05
 ErrMax= 7.07D-05  0.00D+00 EMaxC= 1.00D-01 BMatC= 5.41D-06 BMatP= 3.44D-05
 IDIUse=1 WtCom= 1.00D+00 WtEn= 0.00D+00
 Coeff-Com:  0.252D-03-0.162D-02 0.213D-02 0.470D-02 0.348D-01 0.108D+00
 Coeff-Com:  0.324D+00 0.528D+00
 Coeff:      0.252D-03-0.162D-02 0.213D-02 0.470D-02 0.348D-01 0.108D+00
 Coeff:      0.324D+00 0.528D+00
 Gap=     0.172 Goal=   None    Shift=    0.000
 RMSDP=4.68D-06 MaxDP=2.09D-04 DE=-3.38D-05 OVMax= 5.19D-04

 Initial convergence to 1.0D-05 achieved.  Increase integral accuracy.
 Cycle   9  Pass 1  IDiag  1:
 E= -2295.92496172849     Delta-E=        0.000002406835 Rises=F Damp=F
 DIIS: error= 2.16D-04 at cycle   1 NSaved=   1.
 NSaved= 1 IEnMin= 1 EnMin= -2295.92496172849     IErMin= 1 ErrMin= 2.16D-04
 ErrMax= 2.16D-04  0.00D+00 EMaxC= 1.00D-01 BMatC= 8.57D-06 BMatP= 8.57D-06
 IDIUse=3 WtCom= 9.98D-01 WtEn= 2.16D-03
 Coeff-Com:  0.100D+01
 Coeff-En:   0.100D+01
 Coeff:      0.100D+01
 Gap=     0.172 Goal=   None    Shift=    0.000
 RMSDP=4.68D-06 MaxDP=2.09D-04 DE= 2.41D-06 OVMax= 3.72D-04

 Cycle  10  Pass 1  IDiag  1:
 RMSU=  8.25D-05    CP:  1.00D+00
 E= -2295.92496751325     Delta-E=       -0.000005784756 Rises=F Damp=F
 DIIS: error= 4.86D-05 at cycle   2 NSaved=   2.
 NSaved= 2 IEnMin= 2 EnMin= -2295.92496751325     IErMin= 2 ErrMin= 4.86D-05
 ErrMax= 4.86D-05  0.00D+00 EMaxC= 1.00D-01 BMatC= 1.27D-06 BMatP= 8.57D-06
 IDIUse=1 WtCom= 1.00D+00 WtEn= 0.00D+00
 Coeff-Com:  0.168D+00 0.832D+00
 Coeff:      0.168D+00 0.832D+00
 Gap=     0.172 Goal=   None    Shift=    0.000
 RMSDP=5.03D-06 MaxDP=2.38D-04 DE=-5.78D-06 OVMax= 5.40D-04

 Cycle  11  Pass 1  IDiag  1:
 RMSU=  5.00D-06    CP:  1.00D+00  1.01D+00
 E= -2295.92496561053     Delta-E=        0.000001902722 Rises=F Damp=F
 DIIS: error= 8.18D-05 at cycle   3 NSaved=   3.
 NSaved= 3 IEnMin= 2 EnMin= -2295.92496751325     IErMin= 2 ErrMin= 4.86D-05
 ErrMax= 8.18D-05  0.00D+00 EMaxC= 1.00D-01 BMatC= 3.06D-06 BMatP= 1.27D-06
 IDIUse=1 WtCom= 1.00D+00 WtEn= 0.00D+00
 Coeff-Com:  0.127D-02 0.609D+00 0.390D+00
 Coeff:      0.127D-02 0.609D+00 0.390D+00
 Gap=     0.172 Goal=   None    Shift=    0.000
 RMSDP=3.10D-06 MaxDP=1.59D-04 DE= 1.90D-06 OVMax= 3.39D-04

 Cycle  12  Pass 1  IDiag  1:
 RMSU=  6.81D-07    CP:  1.00D+00  1.01D+00  3.99D-01
 E= -2295.92496888883     Delta-E=       -0.000003278305 Rises=F Damp=F
 DIIS: error= 8.11D-06 at cycle   4 NSaved=   4.
 NSaved= 4 IEnMin= 4 EnMin= -2295.92496888883     IErMin= 4 ErrMin= 8.11D-06
 ErrMax= 8.11D-06  0.00D+00 EMaxC= 1.00D-01 BMatC= 4.11D-08 BMatP= 1.27D-06
 IDIUse=1 WtCom= 1.00D+00 WtEn= 0.00D+00
 Coeff-Com: -0.278D-02 0.355D+00 0.235D+00 0.413D+00
 Coeff:     -0.278D-02 0.355D+00 0.235D+00 0.413D+00
 Gap=     0.172 Goal=   None    Shift=    0.000
 RMSDP=4.14D-07 MaxDP=2.99D-05 DE=-3.28D-06 OVMax= 3.85D-05

 Cycle  13  Pass 1  IDiag  1:
 RMSU=  1.84D-07    CP:  1.00D+00  1.01D+00  4.08D-01  4.61D-01
 E= -2295.92496892349     Delta-E=       -0.000000034661 Rises=F Damp=F
 DIIS: error= 2.61D-06 at cycle   5 NSaved=   5.
 NSaved= 5 IEnMin= 5 EnMin= -2295.92496892349     IErMin= 5 ErrMin= 2.61D-06
 ErrMax= 2.61D-06  0.00D+00 EMaxC= 1.00D-01 BMatC= 2.53D-09 BMatP= 4.11D-08
 IDIUse=1 WtCom= 1.00D+00 WtEn= 0.00D+00
 Coeff-Com: -0.182D-02 0.196D+00 0.131D+00 0.268D+00 0.408D+00
 Coeff:     -0.182D-02 0.196D+00 0.131D+00 0.268D+00 0.408D+00
 Gap=     0.172 Goal=   None    Shift=    0.000
 RMSDP=9.86D-08 MaxDP=8.80D-06 DE=-3.47D-08 OVMax= 1.00D-05

 Cycle  14  Pass 1  IDiag  1:
 RMSU=  6.34D-08    CP:  1.00D+00  1.01D+00  4.05D-01  4.80D-01  6.05D-01
 E= -2295.92496892594     Delta-E=       -0.000000002442 Rises=F Damp=F
 DIIS: error= 3.68D-07 at cycle   6 NSaved=   6.
 NSaved= 6 IEnMin= 6 EnMin= -2295.92496892594     IErMin= 6 ErrMin= 3.68D-07
 ErrMax= 3.68D-07  0.00D+00 EMaxC= 1.00D-01 BMatC= 9.91D-11 BMatP= 2.53D-09
 IDIUse=1 WtCom= 1.00D+00 WtEn= 0.00D+00
 Coeff-Com: -0.881D-03 0.909D-01 0.605D-01 0.128D+00 0.234D+00 0.488D+00
 Coeff:     -0.881D-03 0.909D-01 0.605D-01 0.128D+00 0.234D+00 0.488D+00
 Gap=     0.172 Goal=   None    Shift=    0.000
 RMSDP=2.02D-08 MaxDP=1.28D-06 DE=-2.44D-09 OVMax= 3.21D-06

 Cycle  15  Pass 1  IDiag  1:
 RMSU=  1.59D-08    CP:  1.00D+00  1.01D+00  4.05D-01  4.82D-01  6.39D-01
                    CP:  8.37D-01
 E= -2295.92496892599     Delta-E=       -0.000000000055 Rises=F Damp=F
 DIIS: error= 1.13D-07 at cycle   7 NSaved=   7.
 NSaved= 7 IEnMin= 7 EnMin= -2295.92496892599     IErMin= 7 ErrMin= 1.13D-07
 ErrMax= 1.13D-07  0.00D+00 EMaxC= 1.00D-01 BMatC= 9.80D-12 BMatP= 9.91D-11
 IDIUse=1 WtCom= 1.00D+00 WtEn= 0.00D+00
 Coeff-Com: -0.238D-03 0.235D-01 0.156D-01 0.340D-01 0.736D-01 0.271D+00
 Coeff-Com:  0.582D+00
 Coeff:     -0.238D-03 0.235D-01 0.156D-01 0.340D-01 0.736D-01 0.271D+00
 Coeff:      0.582D+00
 Gap=     0.172 Goal=   None    Shift=    0.000
 RMSDP=7.29D-09 MaxDP=3.28D-07 DE=-5.55D-11 OVMax= 1.14D-06

 SCF Done:  E(RB3LYP) =  -2295.92496893     A.U. after   15 cycles
            NFock= 15  Conv=0.73D-08     -V/T= 2.0078
 KE= 2.278120485267D+03 PE=-1.439316887876D+04 EE= 5.305784196018D+03
 Leave Link  502 at Fri Jun  5 16:58:55 2026, MaxMem=  2516582400 cpu:             706.2 elap:              50.3
 (Enter /apl/gaussian/16c02/g16/l601.exe)
 Copying SCF densities to generalized density rwf, IOpCl= 0 IROHF=0.

 **********************************************************************

            Population analysis using the SCF Density.

 **********************************************************************

 Orbital symmetries:
       Occupied  (A) (A) (A) (A) (A) (A) (A) (A) (A) (A) (A) (A)
                 (A) (A) (A) (A) (A) (A) (A) (A) (A) (A) (A) (A)
                 (A) (A) (A) (A) (A) (A) (A) (A) (A) (A) (A) (A)
                 (A) (A) (A) (A) (A) (A) (A) (A) (A) (A) (A) (A)
                 (A) (A) (A) (A) (A) (A) (A) (A) (A) (A) (A) (A)
                 (A) (A) (A) (A) (A) (A) (A) (A) (A) (A) (A) (A)
                 (A) (A) (A) (A) (A) (A) (A) (A) (A) (A) (A) (A)
                 (A) (A) (A) (A) (A) (A) (A) (A) (A) (A) (A) (A)
                 (A) (A) (A) (A) (A) (A) (A) (A) (A) (A) (A) (A)
                 (A) (A) (A) (A) (A) (A) (A) (A) (A) (A) (A) (A)
                 (A) (A) (A) (A) (A) (A) (A) (A) (A) (A) (A) (A)
                 (A) (A) (A) (A) (A) (A) (A) (A) (A) (A) (A) (A)
                 (A) (A) (A) (A)
       Virtual   (A) (A) (A) (A) (A) (A) (A) (A) (A) (A) (A) (A)
                 (A) (A) (A) (A) (A) (A) (A) (A) (A) (A) (A) (A)
                 (A) (A) (A) (A) (A) (A) (A) (A) (A) (A) (A) (A)
                 (A) (A) (A) (A) (A) (A) (A) (A) (A) (A) (A) (A)
                 (A) (A) (A) (A) (A) (A) (A) (A) (A) (A) (A) (A)
                 (A) (A) (A) (A) (A) (A) (A) (A) (A) (A) (A) (A)
                 (A) (A) (A) (A) (A) (A) (A) (A) (A) (A) (A) (A)
                 (A) (A) (A) (A) (A) (A) (A) (A) (A) (A) (A) (A)
                 (A) (A) (A) (A) (A) (A) (A) (A) (A) (A) (A) (A)
                 (A) (A) (A) (A) (A) (A) (A) (A) (A) (A) (A) (A)
                 (A) (A) (A) (A) (A) (A) (A) (A) (A) (A) (A) (A)
                 (A) (A) (A) (A) (A) (A) (A) (A) (A) (A) (A) (A)
                 (A) (A) (A) (A) (A) (A) (A) (A) (A) (A) (A) (A)
                 (A) (A) (A) (A) (A) (A) (A) (A) (A) (A) (A) (A)
                 (A) (A) (A) (A) (A) (A) (A) (A) (A) (A) (A) (A)
                 (A) (A) (A) (A) (A) (A) (A) (A) (A) (A) (A) (A)
                 (A) (A) (A) (A) (A) (A) (A) (A) (A) (A) (A) (A)
                 (A) (A) (A) (A) (A) (A) (A) (A) (A) (A) (A) (A)
                 (A) (A) (A) (A) (A) (A) (A) (A) (A) (A) (A) (A)
                 (A) (A) (A) (A) (A) (A) (A) (A) (A) (A) (A) (A)
                 (A) (A) (A) (A) (A) (A) (A) (A) (A) (A) (A) (A)
                 (A) (A) (A) (A) (A) (A) (A) (A) (A) (A) (A) (A)
                 (A) (A) (A) (A) (A) (A) (A) (A) (A) (A) (A) (A)
                 (A) (A) (A) (A) (A) (A) (A) (A) (A) (A) (A) (A)
                 (A) (A) (A) (A) (A) (A) (A) (A) (A) (A) (A) (A)
                 (A) (A) (A) (A) (A) (A) (A) (A) (A) (A) (A) (A)
                 (A) (A) (A) (A) (A) (A) (A) (A) (A) (A) (A) (A)
                 (A) (A) (A) (A) (A) (A) (A) (A) (A) (A) (A) (A)
                 (A) (A) (A) (A) (A) (A) (A) (A) (A) (A) (A) (A)
                 (A) (A) (A) (A) (A) (A) (A) (A) (A) (A) (A) (A)
                 (A) (A) (A) (A) (A) (A) (A) (A) (A) (A) (A) (A)
                 (A) (A) (A) (A) (A) (A) (A) (A) (A) (A) (A) (A)
                 (A) (A) (A) (A) (A) (A) (A) (A) (A) (A) (A) (A)
                 (A) (A) (A) (A) (A) (A) (A) (A) (A) (A) (A) (A)
                 (A) (A) (A) (A) (A) (A) (A) (A) (A) (A) (A) (A)
                 (A) (A) (A) (A) (A) (A) (A) (A) (A) (A) (A) (A)
                 (A) (A) (A) (A) (A) (A) (A) (A) (A) (A) (A) (A)
                 (A) (A) (A) (A) (A) (A) (A) (A) (A) (A) (A) (A)
                 (A) (A) (A) (A) (A) (A) (A) (A) (A) (A) (A) (A)
                 (A) (A) (A) (A) (A) (A) (A) (A) (A) (A) (A) (A)
                 (A) (A) (A) (A) (A) (A) (A) (A) (A) (A) (A) (A)
                 (A) (A) (A) (A) (A) (A) (A) (A) (A) (A) (A) (A)
                 (A) (A) (A) (A) (A) (A) (A) (A) (A) (A) (A) (A)
                 (A) (A) (A) (A) (A) (A) (A) (A) (A) (A) (A)
 The electronic state is 1-A.
 Alpha  occ. eigenvalues --  -77.15450 -77.15380 -19.21852 -19.07465 -19.07398
 Alpha  occ. eigenvalues --  -10.25835 -10.25796 -10.21208 -10.21101 -10.20996
 Alpha  occ. eigenvalues --  -10.20990 -10.20961 -10.20912 -10.20757 -10.20718
 Alpha  occ. eigenvalues --  -10.20676 -10.20507 -10.20496 -10.20408 -10.20377
 Alpha  occ. eigenvalues --  -10.20281 -10.20251 -10.20209 -10.20193 -10.20149
 Alpha  occ. eigenvalues --  -10.20125 -10.20104 -10.20078 -10.20075 -10.20070
 Alpha  occ. eigenvalues --  -10.20056 -10.20043 -10.20025 -10.19974 -10.19964
 Alpha  occ. eigenvalues --  -10.19935 -10.19929 -10.19908 -10.19889 -10.19809
 Alpha  occ. eigenvalues --  -10.19797  -6.61229  -6.61161  -4.77473  -4.77462
 Alpha  occ. eigenvalues --   -4.77425  -4.77405  -4.77392  -4.77359  -1.12616
 Alpha  occ. eigenvalues --   -0.93459  -0.93377  -0.87558  -0.86782  -0.86311
 Alpha  occ. eigenvalues --   -0.86195  -0.86104  -0.85998  -0.80583  -0.77501
 Alpha  occ. eigenvalues --   -0.77029  -0.76706  -0.75458  -0.75381  -0.75345
 Alpha  occ. eigenvalues --   -0.75277  -0.75260  -0.75150  -0.74603  -0.74094
 Alpha  occ. eigenvalues --   -0.67576  -0.64641  -0.64030  -0.63537  -0.61447
 Alpha  occ. eigenvalues --   -0.61400  -0.61316  -0.61250  -0.60669  -0.60551
 Alpha  occ. eigenvalues --   -0.60162  -0.59638  -0.57209  -0.55530  -0.53220
 Alpha  occ. eigenvalues --   -0.53004  -0.52762  -0.52683  -0.50879  -0.50523
 Alpha  occ. eigenvalues --   -0.49622  -0.47605  -0.47301  -0.46708  -0.46603
 Alpha  occ. eigenvalues --   -0.46411  -0.45767  -0.45732  -0.45603  -0.45501
 Alpha  occ. eigenvalues --   -0.45185  -0.45008  -0.44732  -0.44372  -0.43083
 Alpha  occ. eigenvalues --   -0.42892  -0.42819  -0.42794  -0.42667  -0.42410
 Alpha  occ. eigenvalues --   -0.42339  -0.41071  -0.39637  -0.38579  -0.37726
 Alpha  occ. eigenvalues --   -0.37635  -0.37552  -0.37373  -0.37172  -0.36724
 Alpha  occ. eigenvalues --   -0.36387  -0.36269  -0.35744  -0.35537  -0.35425
 Alpha  occ. eigenvalues --   -0.35264  -0.35008  -0.34660  -0.34502  -0.34442
 Alpha  occ. eigenvalues --   -0.33661  -0.33530  -0.30273  -0.27271  -0.27137
 Alpha  occ. eigenvalues --   -0.26846  -0.26633  -0.26236  -0.26110  -0.25976
 Alpha  occ. eigenvalues --   -0.25880  -0.25784  -0.24984  -0.24604  -0.24473
 Alpha  occ. eigenvalues --   -0.24367  -0.23731  -0.23274
 Alpha virt. eigenvalues --   -0.06110  -0.02926  -0.02816  -0.02707  -0.02592
 Alpha virt. eigenvalues --   -0.01727  -0.01448  -0.00777  -0.00648  -0.00603
 Alpha virt. eigenvalues --    0.00154   0.00626   0.08111   0.08277   0.08944
 Alpha virt. eigenvalues --    0.09143   0.09273   0.09609   0.09787   0.10486
 Alpha virt. eigenvalues --    0.11616   0.12240   0.12566   0.13009   0.13578
 Alpha virt. eigenvalues --    0.13718   0.13748   0.14011   0.14139   0.14574
 Alpha virt. eigenvalues --    0.14718   0.15166   0.15355   0.15604   0.15692
 Alpha virt. eigenvalues --    0.15864   0.16397   0.16530   0.16937   0.17518
 Alpha virt. eigenvalues --    0.17797   0.17920   0.18073   0.18231   0.18340
 Alpha virt. eigenvalues --    0.18472   0.19134   0.19552   0.20583   0.20745
 Alpha virt. eigenvalues --    0.20872   0.21099   0.21250   0.22993   0.24342
 Alpha virt. eigenvalues --    0.25389   0.25885   0.27322   0.27770   0.28145
 Alpha virt. eigenvalues --    0.28365   0.29315   0.29470   0.29529   0.29713
 Alpha virt. eigenvalues --    0.29803   0.30075   0.30225   0.30632   0.30719
 Alpha virt. eigenvalues --    0.31029   0.31757   0.32071   0.32271   0.32425
 Alpha virt. eigenvalues --    0.33979   0.35848   0.37041   0.37718   0.37951
 Alpha virt. eigenvalues --    0.38211   0.39293   0.40841   0.41609   0.42526
 Alpha virt. eigenvalues --    0.42745   0.44798   0.46673   0.46839   0.47074
 Alpha virt. eigenvalues --    0.48338   0.49580   0.50003   0.51049   0.51616
 Alpha virt. eigenvalues --    0.51816   0.52261   0.52405   0.52797   0.52960
 Alpha virt. eigenvalues --    0.53258   0.53569   0.53737   0.53779   0.54168
 Alpha virt. eigenvalues --    0.54468   0.54751   0.54862   0.55106   0.55327
 Alpha virt. eigenvalues --    0.55767   0.56077   0.56306   0.56511   0.56701
 Alpha virt. eigenvalues --    0.56924   0.57338   0.57574   0.57828   0.58099
 Alpha virt. eigenvalues --    0.58208   0.58716   0.58965   0.59031   0.59081
 Alpha virt. eigenvalues --    0.59230   0.59699   0.59900   0.60055   0.60093
 Alpha virt. eigenvalues --    0.60163   0.60301   0.60558   0.60639   0.60725
 Alpha virt. eigenvalues --    0.60961   0.61079   0.61377   0.61441   0.61842
 Alpha virt. eigenvalues --    0.62000   0.62678   0.62847   0.63482   0.64233
 Alpha virt. eigenvalues --    0.64402   0.64528   0.64678   0.64982   0.65629
 Alpha virt. eigenvalues --    0.68061   0.68402   0.68915   0.69745   0.70589
 Alpha virt. eigenvalues --    0.71222   0.72134   0.72326   0.72752   0.72851
 Alpha virt. eigenvalues --    0.74566   0.75425   0.76734   0.77865   0.78274
 Alpha virt. eigenvalues --    0.78621   0.79780   0.80565   0.81190   0.81504
 Alpha virt. eigenvalues --    0.81528   0.81854   0.81926   0.82863   0.82945
 Alpha virt. eigenvalues --    0.83021   0.83320   0.83384   0.83549   0.83582
 Alpha virt. eigenvalues --    0.83732   0.83837   0.84285   0.84372   0.84798
 Alpha virt. eigenvalues --    0.85198   0.85230   0.85604   0.85735   0.86088
 Alpha virt. eigenvalues --    0.86247   0.86440   0.86725   0.87101   0.87874
 Alpha virt. eigenvalues --    0.89236   0.89809   0.90022   0.90563   0.90752
 Alpha virt. eigenvalues --    0.91066   0.91167   0.91463   0.91685   0.91892
 Alpha virt. eigenvalues --    0.92960   0.93406   0.93871   0.94131   0.94596
 Alpha virt. eigenvalues --    0.94681   0.95606   0.95757   0.96077   0.96319
 Alpha virt. eigenvalues --    0.96739   0.97063   0.98720   0.99378   0.99784
 Alpha virt. eigenvalues --    1.00051   1.01002   1.01221   1.02743   1.03819
 Alpha virt. eigenvalues --    1.04356   1.04569   1.04822   1.06730   1.07707
 Alpha virt. eigenvalues --    1.08879   1.09632   1.09898   1.10203   1.10354
 Alpha virt. eigenvalues --    1.10698   1.11826   1.12186   1.12490   1.13243
 Alpha virt. eigenvalues --    1.13584   1.14188   1.14464   1.16649   1.16760
 Alpha virt. eigenvalues --    1.17050   1.17103   1.17576   1.18256   1.18550
 Alpha virt. eigenvalues --    1.19350   1.20050   1.20192   1.20370   1.21518
 Alpha virt. eigenvalues --    1.23637   1.24395   1.24438   1.25080   1.26102
 Alpha virt. eigenvalues --    1.26637   1.26934   1.27174   1.27478   1.28657
 Alpha virt. eigenvalues --    1.29031   1.29449   1.29587   1.30424   1.31021
 Alpha virt. eigenvalues --    1.31621   1.31919   1.33161   1.33662   1.35652
 Alpha virt. eigenvalues --    1.37720   1.39143   1.39686   1.41117   1.41811
 Alpha virt. eigenvalues --    1.42495   1.43412   1.43731   1.43836   1.44104
 Alpha virt. eigenvalues --    1.44255   1.44886   1.45158   1.45346   1.46237
 Alpha virt. eigenvalues --    1.46701   1.47070   1.47215   1.47310   1.47557
 Alpha virt. eigenvalues --    1.47735   1.47913   1.48601   1.48660   1.49202
 Alpha virt. eigenvalues --    1.49351   1.49586   1.49840   1.50161   1.50344
 Alpha virt. eigenvalues --    1.50391   1.50425   1.50469   1.51022   1.51366
 Alpha virt. eigenvalues --    1.52611   1.60419   1.62559   1.62709   1.63296
 Alpha virt. eigenvalues --    1.63548   1.64500   1.68696   1.69135   1.71694
[...]
 0001595,-0.00000054,-0.00000087,0.00000249,-0.00000079,0.00000017,0.00
 000046,0.00000029,0.00000085,0.00000005,0.00000087,0.00000085,0.000000
 56,-0.00000057,-0.00000045,0.00000023,-0.00000019,0.00000196,0.0000006
 1,0.00000070,-0.00000159,0.00000023,0.00000124,-0.00000124,-0.00000110
 ,0.00000052,0.00000044,-0.00000125,-0.00000088,-0.00000042,0.00000142,
 0.00000083,0.00000075,0.00000053,-0.00000128,0.00000137,-0.00000018,0.
 00000005,0.00000138,-0.00000175,-0.00004111,0.00004984,-0.00001358,-0.
 00001291,0.00001504,0.00003331,-0.00001227,0.00000707,0.00000901,-0.00
 000380,0.00000410,0.00000653,0.00000490,-0.00000126,-0.00000582,-0.000
 01551,-0.00005391,-0.00001735,-0.00028809,0.00061386,-0.00063489,0.000
 58361,-0.00024985,-0.00015626,0.00014073,-0.00054274,0.00116377,0.0020
 3484,-0.00014884,-0.00109684,0.00791033,0.13470563,0.00000671,-0.00000
 370,0.00000128,-0.00002284,0.00000978,0.00000369,0.00000481,-0.0000020
 2,-0.00000013,-0.00000070,-0.00000065,-0.00000068,0.00000058,-0.000000
 02,0.00000006,0.00000010,-0.00000010,-0.00000007,0.00000008,0.00000005
 ,0.00000030,0.00000023,0.00000117,-0.00000113,0.00000282,-0.00000095,-
 0.00000133,0.00000036,0.00000042,-0.00000191,-0.00000050,0.00000030,-0
 .00000008,-0.00000016,0.00000015,-0.00000030,-0.00000014,-0.00000075,0
 .00000026,0.00000058,-0.00000115,0.00000079,0.00001287,-0.00000313,0.0
 0000870,0.00000878,-0.00000270,-0.00000268,-0.00000275,-0.00000182,-0.
 00000839,0.00000287,0.00000239,0.00000990,0.00001126,-0.00000031,-0.00
 000234,-0.00000872,0.00000117,-0.00000078,0.00001176,-0.00000419,0.000
 00316,-0.00004350,-0.00000191,0.00000119,0.00006977,-0.00001485,0.0000
 4579,0.00004346,-0.00005376,0.00002838,0.00049556,0.00070932,-0.003089
 95,0.00132893,0.00092519,0.00101151,-0.00017723,-0.00034941,0.00014529
 ,0.00007150,0.00007187,-0.00005965,-0.00000270,0.00000571,0.00001248,-
 0.00000628,-0.00001681,0.00000559,0.00000782,-0.00005187,0.00004488,0.
 00006656,-0.00007696,-0.00004924,-0.00109419,0.01150258,-0.01694274,-0
 .00422293,-0.00176871,-0.00120596,-0.00011085,-0.00064849,0.00028345,-
 0.00159649,0.00067583,0.00213120,-0.00074531,-0.00076645,0.00307253,-0
 .01300921,0.12897334,-0.26372036,0.00000366,-0.00002692,-0.00001991,0.
 00005313,-0.00000633,0.00001769,-0.00000345,0.00001210,0.00003118,-0.0
 0000019,-0.00000011,0.00000082,-0.00000031,0.,0.00000029,0.00000004,0.
 00000026,0.00000005,0.00000026,0.00000029,0.00000020,-0.00000011,-0.00
 000010,0.00000008,0.00000011,0.00000075,0.00000029,0.00000036,-0.00000
 065,0.00000003,0.00000040,-0.00000039,-0.00000036,0.00000012,0.0000001
 2,-0.00000035,-0.00000033,-0.00000019,0.00000055,0.00000057,0.00000050
 ,0.00000015,-0.00000008,0.00000162,0.00000057,-0.00000033,0.00000059,-
 0.00000074,-0.00003472,0.00002118,0.00000857,-0.00003681,0.00002212,0.
 00001417,-0.00000844,0.00000224,0.00000003,-0.00000376,0.00000038,0.00
 000329,0.00000518,-0.00000264,-0.00000488,-0.00002001,-0.00003294,0.00
 000382,-0.00006427,0.00086054,-0.00073283,0.00037593,-0.00011489,-0.00
 014827,-0.00007727,-0.00017729,0.00007726,0.00133933,-0.00056231,0.000
 23553,0.01737605,-0.13913527,0.27878023,-0.00005695,0.00000799,-0.0000
 1698,0.00018893,-0.00001677,-0.00000727,-0.00003674,0.00000763,-0.0000
 0027,0.00000069,-0.00000028,0.00000074,-0.00000472,0.00000182,-0.00000
 584,-0.00000118,-0.00000262,0.00000005,-0.00000053,-0.00000217,-0.0000
 0261,0.00000162,-0.00001332,0.00001146,-0.00002683,-0.00000289,0.00000
 665,-0.00000343,-0.00000415,0.00000833,0.00000200,-0.00000252,0.000000
 77,-0.00000040,-0.00000014,0.00000128,0.00000010,0.00000178,-0.0000019
 6,-0.00000535,0.00000983,-0.00000552,-0.00007640,0.00002298,-0.0000310
 3,-0.00002476,-0.00002234,-0.00004130,-0.00002978,0.00001915,0.0001170
 1,-0.00009912,0.00040440,0.00103224,-0.00051510,-0.00010572,-0.0003504
 6,0.00004013,0.00000437,0.00017502,0.00024710,-0.00010261,0.00012886,-
 0.00001725,-0.00022929,-0.00073829,0.00113885,0.00095096,-0.00122832,0
 .00518086,-0.00086746,0.00000336,-0.00049389,-0.00056706,-0.00071554,0
 .00015246,0.00004583,0.00025553,-0.00024520,0.00012943,-0.00097924,-0.
 00073331,0.00022975,-0.00014732,-0.00023533,0.00014104,0.00006675,-0.0
 0002346,-0.00000556,0.00002746,-0.00006176,-0.00002925,0.00004251,0.00
 004106,-0.00030108,0.00000476,-0.00005956,0.00000088,-0.00007433,0.000
 21082,-0.00010905,0.00033377,-0.00001683,-0.00000237,-0.00013577,-0.00
 001524,-0.00001815,0.00000905,0.00000114,-0.00001097,-0.00000175,-0.00
 002668,0.00005643,-0.00002714,-0.25634570,0.06608826,0.11081561,-0.019
 01359,0.00678253,0.01444252,-0.00270764,0.00127272,-0.00424371,0.00000
 052,0.00000790,-0.00000587,0.00000023,-0.00000162,0.00000249,-0.000002
 34,-0.00000211,0.00000084,-0.00000312,-0.00000226,-0.00000032,0.000001
 97,0.00000259,0.00000065,0.00000097,-0.00000350,-0.00000053,-0.0000001
 2,0.00000284,0.00000041,-0.00000048,0.00000153,0.00000163,0.00000047,0
 .00000041,0.00000232,0.00000266,0.00000170,-0.00000165,-0.00001965,0.0
 0000577,-0.00000088,0.00000492,0.00000737,-0.00003460,-0.00004216,0.00
 000288,0.00000262,0.00024446,0.00002433,-0.00022001,-0.00036083,-0.000
 08180,-0.00021928,0.00004358,0.00001340,0.00000727,0.00001744,-0.00002
 329,0.00000593,0.00000048,-0.00001343,0.00000830,0.00001417,-0.0000133
 3,0.00003381,-0.00010347,-0.00004836,-0.00017485,0.00001040,0.00001638
 ,0.00000174,-0.00001406,0.00000088,-0.00000817,0.00000775,0.00000006,-
 0.00000583,-0.00001348,-0.00001620,-0.00001212,0.27297743,0.00001478,-
 0.00001176,0.00000635,-0.00004659,0.00002707,0.00000433,0.00000982,-0.
 00000448,0.00000008,-0.00000293,-0.00000243,-0.00000246,0.00000166,0.0
 0000032,-0.00000038,-0.00000017,-0.00000084,-0.00000020,-0.00000011,-0
 .00000036,0.00000057,0.00000075,0.00000231,-0.00000207,0.00000705,-0.0
 0000317,-0.00000223,0.00000080,0.00000148,-0.00000518,-0.00000106,0.00
 000104,-0.00000044,-0.00000014,-0.00000037,-0.00000049,-0.00000013,-0.
 00000100,0.00000074,0.00000250,-0.00000278,0.00000236,0.00002468,0.000
 02705,-0.00000151,0.00000210,-0.00006022,0.00001652,0.00000709,-0.0000
 0635,-0.00001108,0.00003582,0.00066238,-0.00014576,-0.00011638,-0.0005
 7903,0.00004824,-0.00000882,-0.00006147,0.00000859,0.00009375,-0.00035
 406,0.00008816,-0.00037078,-0.00035771,0.00004766,0.00054644,0.0053740
 7,-0.00158935,0.00405637,-0.00155529,-0.00184634,-0.00018097,-0.001840
 41,0.00038462,0.00015738,0.00013289,0.00027503,0.00002668,-0.00000958,
 0.00028483,0.00027478,0.00028509,-0.00025595,0.00014515,-0.00019269,-0
 .00002140,0.00001424,-0.00005690,-0.00001411,-0.00000143,-0.00006039,0
 .00006447,0.00000307,-0.00013472,0.00000399,-0.00047293,0.00019222,-0.
 00044279,-0.00022961,0.00003159,-0.00034538,0.00013057,-0.00000616,0.0
 0021537,-0.00000395,0.00002562,-0.00003885,0.00002081,-0.00004689,-0.0
 0001914,-0.00007828,-0.00012973,0.00024121,0.06770683,-0.05558527,-0.0
 4073930,0.00038784,0.00190707,-0.00068874,0.00108719,0.00711416,-0.001
 05966,-0.00000045,0.00000084,0.00000234,-0.00000105,-0.00000051,0.0000
 0130,-0.00000008,0.00000065,0.00000015,0.00000076,0.00000065,0.0000006
 0,-0.00000010,-0.00000010,0.00000025,0.00000047,0.00000179,0.00000079,
 0.00000084,-0.00000182,-0.00000012,0.00000060,-0.00000069,-0.00000088,
 -0.00000013,0.00000014,-0.00000049,-0.00000120,-0.00000056,0.00000108,
 0.00000441,0.00001708,-0.00000223,0.00000713,0.00004183,-0.00000469,-0
 .00000509,-0.00002285,0.00000659,0.00034698,0.00058319,-0.00013406,-0.
 00022743,-0.00015231,0.00003012,-0.00000020,0.00000476,0.00000132,-0.0
 0000288,-0.00001084,-0.00000044,0.00001962,-0.00000320,0.00000888,-0.0
 0001055,0.00000719,0.00001363,-0.00000046,-0.00061712,-0.00008707,-0.0
 0001705,-0.00001793,-0.00000193,0.00001613,0.00002080,0.00002637,0.000
 00478,-0.00002563,0.00000891,0.00000620,0.00002447,0.00002730,-0.07257
 426,0.04920285,0.00002556,-0.00000119,0.00000247,-0.00007746,0.0000041
 1,0.00001301,0.00001614,-0.00000192,-0.00000157,-0.00000112,-0.0000008
 1,-0.00000050,0.00000300,-0.00000070,0.00000271,-0.00000018,0.00000014
 ,-0.00000023,-0.00000007,0.00000063,0.00000063,-0.00000051,0.00000550,
 -0.00000514,0.00001024,0.00000166,-0.00000433,0.00000176,0.00000071,-0
 .00000256,-0.00000018,0.00000200,-0.00000033,0.00000053,0.00000150,0.0
 0000015,0.00000088,-0.00000146,0.00000081,0.00000211,-0.00000399,0.000
 00215,0.00004592,-0.00001004,0.00005008,0.00005995,-0.00000313,-0.0000
 5044,-0.00003105,0.00000739,0.00001717,-0.00027650,0.00002694,0.000816
 57,-0.00022669,0.00012436,-0.00023174,-0.00002877,0.00004068,0.0000976
 7,0.00027777,0.00007103,0.00021180,-0.00111772,0.00013967,-0.00079647,
 -0.00191547,-0.00183152,-0.00530123,0.02617600,-0.00714699,-0.01159235
 ,0.00230976,-0.00070461,-0.00084267,-0.00048116,0.00024922,0.00012268,
 -0.00004840,-0.00019075,0.00023562,-0.00010216,0.00003381,0.00010159,-
 0.00018068,0.00038128,0.00025675,-0.00015286,-0.00026496,0.00020279,0.
 00019894,-0.00016255,-0.00025409,0.00001628,0.00061597,-0.00007487,-0.
 00018356,0.00006998,0.00000174,-0.00015777,0.00005928,-0.00019838,-0.0
 0001082,-0.00002784,0.00010764,0.00002710,0.00002108,0.00001300,0.0000
 2285,0.00001593,-0.00002309,-0.00005826,-0.00003105,0.00000151,0.11089
 684,-0.03997754,-0.12147001,-0.01538403,0.00484501,0.01146850,-0.00351
 134,-0.00122727,-0.00124748,-0.00000023,-0.00000241,0.00000214,-0.0000
 0078,0.00000041,-0.00000083,0.00000120,0.00000144,-0.00000021,0.000001
 44,0.00000105,0.00000063,-0.00000133,-0.00000103,0.00000009,-0.0000012
 9,0.00000152,0.00000004,-0.00000063,-0.00000112,0.00000009,-0.00000032
 ,-0.00000082,-0.00000098,-0.00000118,-0.00000004,-0.00000096,-0.000001
 61,-0.00000064,0.00000026,-0.00000891,-0.00000228,0.00000200,-0.000008
 03,-0.00001180,-0.00001986,-0.00003104,0.00000987,-0.00000360,0.001462
 29,-0.00044118,-0.00036156,-0.00016323,-0.00015936,0.00010625,0.000051
 59,0.00000560,-0.00002578,0.00001584,-0.00003696,0.00000091,-0.0000011
 4,-0.00002592,-0.00000014,0.00000899,-0.00005582,0.00000470,0.00013462
 ,-0.00008244,0.00014318,0.00000496,0.00001358,-0.00000889,0.00001517,0
 .00000528,0.00000604,0.00000615,0.00000165,0.00000285,0.00001054,0.000
 00380,0.00000407,-0.11821830,0.04472404,0.12779334,0.00002342,-0.00001
 016,-0.00001304,-0.00007232,0.00001918,0.00000847,0.00001655,-0.000004
 13,-0.00000341,0.00000348,-0.00000089,-0.00000050,0.00000280,-0.000001
 79,0.00000121,-0.00000034,-0.00000031,-0.00000051,-0.00000052,-0.00000
 014,0.,-0.00000097,0.00000564,-0.00000511,0.00001608,-0.00000204,-0.00
 000460,0.00000207,0.00000105,-0.00000614,-0.00000167,0.00000103,-0.000
 00086,0.00000027,-0.00000091,-0.00000201,-0.00000137,-0.00000243,-0.00
 000065,0.00000034,-0.00000679,0.00000216,0.00006487,-0.00002529,-0.000
 04298,-0.00012542,-0.00001327,-0.00026141,-0.00001882,0.00002989,0.000
 47967,0.00103035,-0.00086857,-0.00084639,0.00068859,-0.00002151,0.0008
 3355,0.00000870,0.00000427,-0.00013778,-0.00127483,0.00048093,0.001600
 41,-0.00359577,0.00198527,0.00019505,-0.00099497,0.00014867,0.00036248
 ,-0.00427539,0.00149353,-0.00252162,0.00109134,-0.00015576,-0.00051284
 ,-0.00037361,0.00007344,-0.00053776,-0.00006948,-0.00002411,0.00003998
 ,0.00001414,0.00006798,-0.00000318,0.00000156,0.00001566,0.00003141,-0
 .00001373,0.00001873,0.00001117,0.00000154,0.00000067,0.00000680,-0.00
 001754,-0.00000668,0.00002597,-0.00017133,0.00004424,0.00002356,-0.000
 06312,-0.00003170,-0.00006572,0.00000940,-0.00000924,0.00000684,-0.000
 00824,-0.00001113,0.00000362,0.00000898,-0.00000588,-0.00000525,-0.000
 00607,-0.00004970,0.00005115,0.00427907,-0.00583769,-0.02783810,-0.059
 80860,0.00409610,-0.00244935,0.00586236,0.00479252,0.02786753,-0.00000
 046,-0.00000185,0.00000511,-0.00000067,0.00000137,0.00000041,0.0000004
 9,0.00000133,0.00000010,0.00000103,0.00000113,0.00000065,-0.00000181,-
 0.00000045,0.00000055,-0.00000022,0.00000295,0.00000091,0.00000040,-0.
 00000173,-0.00000023,0.00000086,-0.00000100,-0.00000112,0.00000094,-0.
 00000025,-0.00000212,0.00000070,0.00000107,0.00000199,-0.00001757,0.00
 001378,0.00000488,-0.00030011,0.00003475,-0.00042960,0.00002362,-0.000
 00564,-0.00000427,0.00011409,-0.00023308,0.00001752,-0.00000774,-0.000
 02700,-0.00001646,-0.00002420,0.00000608,0.00000503,-0.00000567,0.0000
 0204,-0.00000060,-0.00000382,0.00000523,0.00000181,0.00000062,-0.00002
 262,-0.00000370,0.00001323,0.00001216,-0.00000956,-0.00000561,-0.00001
 893,0.00000431,-0.00000098,-0.00000293,0.00000241,-0.00000568,-0.00000
 849,-0.00000023,0.00001275,0.00001887,0.00000413,0.00090324,-0.0008108
 5,0.00058033,0.05707075,-0.00000302,-0.00002468,0.00001614,-0.00001825
 ,0.00007410,-0.00001193,0.00001137,-0.00000938,0.00000447,-0.00000519,
 -0.00000555,-0.00000352,0.00000154,-0.00000025,-0.00000197,-0.00000064
 ,-0.00000244,-0.00000031,0.00000026,-0.00000093,0.00000106,0.00000172,
 0.00000075,-0.00000119,-0.00000714,-0.00000737,0.00000410,-0.00000087,
 -0.00000086,-0.00000713,-0.00000081,0.00000018,0.00000180,-0.00000016,
 0.00000004,-0.00000101,0.00000138,-0.00000157,0.00000127,0.00000036,0.
 00000224,0.,0.00000189,-0.00004877,0.00003420,0.00005796,0.00007208,0.
 00008258,0.00005834,-0.00030896,-0.00012129,-0.00078442,-0.00265502,0.
 00080380,-0.00019538,-0.00029046,-0.00019026,-0.00000495,0.00016105,0.
 00000571,0.00035380,-0.00005007,-0.00044188,0.00214136,0.00665172,-0.0
 0110809,0.00027918,-0.00065092,0.00017069,0.00149042,0.00696498,-0.000
 53210,0.00001500,0.00049341,0.00005350,-0.00010767,-0.00014571,-0.0000
 7181,0.00000290,-0.00002124,0.00001307,0.00000130,0.00001152,0.0000157
 2,-0.00000608,0.00000083,-0.00000605,-0.00000173,-0.00001294,-0.000001
 15,0.00000458,-0.00001369,-0.00001129,-0.00000446,0.00001851,-0.000011
 07,0.00008168,-0.00004051,0.00000616,-0.00002448,-0.00003469,-0.000092
 86,-0.00000387,0.00002027,0.00000954,-0.00000530,-0.00000283,-0.000005
 52,-0.00001023,0.00000005,0.00000475,0.00000506,-0.00000263,0.00002779
 ,-0.00012211,0.00276478,0.00205372,0.00407482,-0.04678339,-0.05724654,
 -0.00101588,0.00110419,-0.00730248,-0.00000063,0.00000398,0.00000197,-
 0.00000162,-0.00000150,0.00000317,-0.00000080,0.00000020,0.00000063,0.
 00000021,0.00000054,0.00000075,0.00000141,0.00000083,0.00000040,0.0000
 0208,0.00000131,0.00000097,0.00000156,-0.00000189,-0.00000049,0.000000
 29,-0.00000025,-0.00000033,-0.00000052,0.00000015,0.00000073,-0.000001
 27,-0.00000137,0.00000182,0.00001983,0.00003837,-0.00000766,0.00012362
 ,0.00023313,0.00010218,-0.00000419,0.00000515,-0.00000110,-0.00022365,
 -0.00117610,0.00016374,0.00000479,0.00000380,0.00000268,0.00000146,0.0
 0000251,0.00000100,0.00000482,-0.00000135,0.00000193,0.00000506,-0.000
 00299,0.00000431,0.00000373,0.00000210,0.00000738,0.00002150,0.0000514
 8,-0.00000676,-0.00000904,-0.00001325,0.00000235,0.00000328,-0.0000015
 4,-0.00000089,0.00000113,-0.00000109,0.00000330,0.00000917,0.00000510,
 0.00000146,-0.00106991,-0.00377295,0.00092406,-0.00515463,0.03739979,0
 .00002933,0.00000190,0.00002301,-0.00009907,-0.00000952,-0.00000663,0.
 00001701,-0.00000200,0.00000276,-0.00000264,0.00000160,0.00000092,0.00
 000136,0.00000048,0.00000424,0.00000116,0.00000267,0.00000058,0.000000
 77,0.00000180,0.00000205,-0.00000091,0.00000707,-0.00000532,0.00001174
 ,0.00000571,-0.00000119,0.00000109,0.00000184,-0.00000257,-0.00000065,
 0.00000178,0.00000054,0.00000055,0.00000104,0.00000019,0.00000122,0.00
 000016,0.00000129,0.00000408,-0.00000289,0.00000302,0.00004170,-0.0000
 0072,0.00000403,0.00003262,0.00002768,0.00024495,0.00056587,-0.0000734
 5,-0.00018885,-0.00086976,0.00079204,0.00032835,-0.00025681,-0.0000149
 6,-0.00063947,-0.00002388,-0.00001950,0.00004168,0.00072445,-0.0002296
 9,-0.00058919,0.00166261,-0.00140250,0.00169990,0.00025492,0.00016009,
 0.00042818,-0.00349158,-0.00077454,0.00048092,0.00110225,-0.00020576,0
 .00004264,-0.00024684,0.00007913,-0.00031558,-0.00012868,-0.00001971,0
 .00000412,-0.00000207,0.00006671,-0.00003701,0.00000763,0.00000295,0.0
 0001817,-0.00000812,0.00002059,0.00000911,0.00000464,0.00000741,0.0000
 1749,-0.00002633,-0.00002018,0.00003152,-0.00018387,0.00004617,-0.0000
 3532,-0.00005277,-0.00003182,-0.00003224,0.00000779,-0.00000299,-0.000
 00987,-0.00000811,-0.00001249,0.00000193,0.00000859,-0.00001102,-0.000
 00740,-0.00001649,-0.00005567,0.00006174,0.00209634,-0.00309841,-0.011
 50696,-0.00387622,-0.05661594,-0.32916157,-0.00102648,-0.00237520,-0.0
 1084365,0.00000023,-0.00000586,-0.00000012,0.00000065,0.00000014,-0.00
 000323,0.00000173,0.00000069,-0.00000102,0.00000191,0.00000093,-0.0000
 0037,-0.00000051,-0.00000188,-0.00000097,-0.00000026,0.00000061,-0.000
 00013,-0.00000028,-0.00000107,-0.00000030,-0.00000065,-0.00000015,-0.0
 0000039,-0.00000170,-0.00000032,0.00000008,-0.00000260,-0.00000221,-0.
 00000081,0.00003018,-0.00001381,-0.00000250,0.00009534,-0.00002183,0.0
 0028129,-0.00000026,-0.00000032,-0.00000174,0.00000124,0.00022578,-0.0
 0010479,-0.00000069,-0.00000996,-0.00001179,-0.00001691,0.00000502,0.0
 0000747,-0.00000959,0.00000533,0.00000005,-0.00000652,0.00001106,-0.00
 000254,-0.00000067,-0.00002253,-0.00000859,0.00000814,0.00002665,-0.00
 002376,-0.00000659,-0.00001632,0.00000701,-0.00000423,-0.00000496,0.00
 000161,-0.00000698,-0.00001056,-0.00000212,0.00001131,0.00001602,0.000
 00579,0.00010534,0.00091789,0.00072664,0.00354594,0.06265181,0.3490647
 0\\0.00000248,-0.00000265,0.00000596,-0.00000444,0.00000301,-0.0000096
 2,-0.00000383,0.00000861,-0.00000502,-0.00000131,-0.00001051,0.0000057
 5,0.00000684,0.00000684,0.00000053,-0.00000659,0.00000102,-0.00000491,
 0.00000053,-0.00000566,0.00000394,0.00000377,0.,0.00000078,0.00000420,
 -0.00000390,-0.00000435,0.00000089,-0.00000076,-0.00000035,-0.00000080
 ,-0.00000001,0.00000618,-0.00000007,0.00000674,-0.00000449,0.00000194,
 -0.00000802,-0.00000351,-0.00000431,0.00000595,0.00001002,-0.00000656,
 0.00000061,0.00000476,0.00000566,-0.00000051,-0.00000369,-0.00000429,0
 .00000027,0.00000866,0.00001378,-0.00000079,-0.00001835,-0.00001167,0.
 00000530,0.00001530,0.00000679,-0.00000196,-0.00000681,-0.00000188,0.0
 0000116,-0.00000181,0.00000314,-0.00000171,0.00000346,0.00000196,-0.00
 000237,-0.00000651,0.00000298,0.00000124,0.00001146,0.00000391,-0.0000
 0183,0.00001334,0.00000148,0.00000420,-0.00000685,-0.00000815,0.000000
 69,0.00000587,0.00000846,-0.00000363,-0.00000603,-0.00000351,0.0000067
 3,0.00000070,-0.00000127,-0.00000478,0.00000381,0.00000294,-0.00000098
 ,-0.00000345,-0.00000073,0.00000077,-0.00000364,-0.00000511,-0.0000070
 8,-0.00000596,0.00000414,0.00001037,-0.00000007,-0.00000382,-0.0000059
 5,-0.00000170,0.00000305,0.00000075,0.00000598,0.00000038,0.00000344,-
 0.00000352,0.00000089,-0.00000141,0.00000183,-0.00001147,-0.00000197,-
 0.00001816,0.00001464,0.00000194,0.00000961,-0.00001140,-0.00000342,-0
 .00000309,0.00000030,0.00000123,-0.00000095,-0.00000045,0.00000002,-0.
 00000022,0.00000048,0.00000019,0.00000010,-0.00000010,0.00000160,-0.00
 000089,0.00000023,0.00000039,-0.00000036,-0.00000033,0.00000014,0.0000
 0001,0.00000059,-0.00000005,-0.00000148,-0.00000008,-0.00000055,0.0000
 0036,-0.00000011,0.00000047,-0.00000004,0.00000072,-0.00000059,-0.0000
 0169,-0.00000051,0.00000059,0.00000096,-0.00000075,0.,-0.00000137,0.00
 000073,-0.00000021,0.00000231,-0.00000104,-0.00000003,0.00000092,-0.00
 000132,0.00000073,0.00000177,0.00000014,-0.00000050,0.00000035,-0.0000
 0022,0.00000018,-0.00000034,-0.00000107,0.00000010,0.00000094,0.000000
 39,-0.00000030,0.00000083,-0.00000029,-0.00000190,0.00000015,-0.000000
 15,-0.00000009,0.00000032,-0.00000031,-0.00000020,-0.00000058,0.000000
 07,-0.00000160,0.00000101,-0.00000062,0.00000033,0.00000002,0.00000126
 ,0.00000058,0.00000260,-0.00000117,-0.00000030,-0.00000074\\\@
 The archive entry for this job was punched.


 REPARTEE - WHAT YOU THINK OF AFTER YOU BECOME A DEPARTEE.
 Job cpu time:       0 days  5 hours  9 minutes 23.8 seconds.
 Elapsed time:       0 days  0 hours 19 minutes 45.4 seconds.
 File lengths (MBytes):  RWF=   3265 Int=      0 D2E=      0 Chk=     40 Scr=      1
 Normal termination of Gaussian 16 at Fri Jun  5 17:29:54 2026.
