 Entering Gaussian System, Link 0=/apl/gaussian/16c02/g16/._.g16
 Initial command:
 /apl/gaussian/16c02/g16/l1.exe "/lwork/users/sm2/679432.ccpbs1/gaussian/Gau-118440.inp" -scrdir="/lwork/users/sm2/679432.ccpbs1/gaussian/"
 Default CPUs for threads: 0,1,2,3,4,5,6,7
 Default is to use a total of   8 processors:
                                8 via shared-memory
                                1 via Linda
 Entering Link 1 = /apl/gaussian/16c02/g16/l1.exe PID=    118441.
  
 Copyright (c) 1988-2021, Gaussian, Inc.  All Rights Reserved.
  
 This is part of the Gaussian(R) 16 program.  It is based on
 the Gaussian(R) 09 system (copyright 2009, Gaussian, Inc.),
 the Gaussian(R) 03 system (copyright 2003, Gaussian, Inc.),
 the Gaussian(R) 98 system (copyright 1998, Gaussian, Inc.),
 the Gaussian(R) 94 system (copyright 1995, Gaussian, Inc.),
 the Gaussian 92(TM) system (copyright 1992, Gaussian, Inc.),
 the Gaussian 90(TM) system (copyright 1990, Gaussian, Inc.),
 the Gaussian 88(TM) system (copyright 1988, Gaussian, Inc.),
 the Gaussian 86(TM) system (copyright 1986, Carnegie Mellon
 University), and the Gaussian 82(TM) system (copyright 1983,
 Carnegie Mellon University). Gaussian is a federally registered
 trademark of Gaussian, Inc.
  
 This software contains proprietary and confidential information,
 including trade secrets, belonging to Gaussian, Inc.
  
 This software is provided under written license and may be
 used, copied, transmitted, or stored only in accord with that
 written license.
  
 The following legend is applicable only to US Government
 contracts under FAR:
  
                    RESTRICTED RIGHTS LEGEND
  
 Use, reproduction and disclosure by the US Government is
 subject to restrictions as set forth in subparagraphs (a)
 and (c) of the Commercial Computer Software - Restricted
 Rights clause in FAR 52.227-19.
  
 Gaussian, Inc.
 340 Quinnipiac St., Bldg. 40, Wallingford CT 06492
  
  
 ---------------------------------------------------------------
 Warning -- This program may not be used in any manner that
 competes with the business of Gaussian, Inc. or will provide
 assistance to any competitor of Gaussian, Inc.  The licensee
 of this program is prohibited from giving any competitor of
 Gaussian, Inc. access to this program.  By using this program,
 the user acknowledges that Gaussian, Inc. is engaged in the
 business of creating and licensing software in the field of
 computational chemistry and represents and warrants to the
 licensee that it is not a competitor of Gaussian, Inc. and that
 it will not use this program in any manner prohibited above.
 ---------------------------------------------------------------
  

 Cite this work as:
 Gaussian 16, Revision C.02,
 M. J. Frisch, G. W. Trucks, H. B. Schlegel, G. E. Scuseria, 
 M. A. Robb, J. R. Cheeseman, G. Scalmani, V. Barone, 
 G. A. Petersson, H. Nakatsuji, X. Li, M. Caricato, A. V. Marenich, 
 J. Bloino, B. G. Janesko, R. Gomperts, B. Mennucci, H. P. Hratchian, 
 J. V. Ortiz, A. F. Izmaylov, J. L. Sonnenberg, D. Williams-Young, 
 F. Ding, F. Lipparini, F. Egidi, J. Goings, B. Peng, A. Petrone, 
 T. Henderson, D. Ranasinghe, V. G. Zakrzewski, J. Gao, N. Rega, 
 G. Zheng, W. Liang, M. Hada, M. Ehara, K. Toyota, R. Fukuda, 
 J. Hasegawa, M. Ishida, T. Nakajima, Y. Honda, O. Kitao, H. Nakai, 
 T. Vreven, K. Throssell, J. A. Montgomery, Jr., J. E. Peralta, 
 F. Ogliaro, M. J. Bearpark, J. J. Heyd, E. N. Brothers, K. N. Kudin, 
 V. N. Staroverov, T. A. Keith, R. Kobayashi, J. Normand, 
 K. Raghavachari, A. P. Rendell, J. C. Burant, S. S. Iyengar, 
 J. Tomasi, M. Cossi, J. M. Millam, M. Klene, C. Adamo, R. Cammi, 
 J. W. Ochterski, R. L. Martin, K. Morokuma, O. Farkas, 
 J. B. Foresman, and D. J. Fox, Gaussian, Inc., Wallingford CT, 2019.
 
 ******************************************
 Gaussian 16:  ES64L-G16RevC.02  7-Dec-2021
                 5-Jun-2026 
 ******************************************
 %chk=mCP.chk
 %mem=9600MB
 SetSPE:  set environment variable "OMP_PROC_BIND" = "true"
 SetSPE:  set environment variable "OMP_PLACES" = "{0},{1},{2},{3},{4},{5},{6},{7}"
 --------------------------
 #p B3LYP/6-31G(d) opt freq
 --------------------------
 1/18=20,19=15,26=3,38=1/1,3;
 2/9=110,12=2,17=6,18=5,40=1/2;
 3/5=1,6=6,7=1,11=2,25=1,30=1,71=1,74=-5/1,2,3;
 4//1;
 5/5=2,38=5/2;
 6/7=2,8=2,9=2,10=2,28=1/1;
 7//1,2,3,16;
 1/18=20,19=15,26=3/3(2);
 2/9=110/2;
 99//99;
 2/9=110/2;
 3/5=1,6=6,7=1,11=2,25=1,30=1,71=1,74=-5/1,2,3;
 4/5=5,16=3,69=1/1;
 5/5=2,38=5/2;
 7//1,2,3,16;
 1/18=20,19=15,26=3/3(-5);
 2/9=110/2;
 6/7=2,8=2,9=2,10=2,19=2,28=1/1;
 99/9=1/99;
 Leave Link    1 at Fri Jun  5 16:57:00 2026, MaxMem=  1258291200 cpu:               0.0 elap:               0.2
 (Enter /apl/gaussian/16c02/g16/l101.exe)
 ---------------------------------
 mCP - B3LYP/6-31G(d) optimization
 ---------------------------------
 Symbolic Z-matrix:
 Charge =  0 Multiplicity = 1
 C                     4.3213   -0.73938  -0.41482 
 C                     3.84245   0.1177    0.57505 
 C                     2.47161   0.35611   0.69284 
 C                     1.57454  -0.26939  -0.18231 
 N                     0.17245  -0.0295   -0.06359 
 C                    -0.82309  -1.00816  -0.1285 
 C                    -0.75201  -2.41285  -0.24546 
 C                    -1.93906  -3.1511   -0.26566 
 C                    -3.17052  -2.52068  -0.15257 
 C                    -3.23961  -1.13418   0.00111 
 C                    -2.05398  -0.36617   0.02757 
 C                    -1.8011    1.02576   0.20132 
 C                    -2.64541   2.14108   0.39989 
 C                    -2.09828   3.42216   0.50125 
 C                    -0.72684   3.60724   0.39356 
 C                     0.12964   2.51935   0.2001 
 C                    -0.41934   1.22074   0.13581 
 C                     2.05904  -1.13129  -1.17442 
 C                     3.43144  -1.36226  -1.28883 
 H                     5.38912  -0.92208  -0.50521 
 H                     4.53686   0.59486   1.26209 
 H                     2.12051   0.99673   1.49826 
 H                     0.19979  -2.9321   -0.30097 
 H                    -1.89424  -4.23355  -0.36171 
 H                    -4.08523  -3.10763  -0.16765 
 H                    -4.20591  -0.64993   0.11029 
 H                    -3.72146   2.00627   0.46394 
 H                    -2.75237   4.27753   0.64935 
 H                    -0.31208   4.61106   0.45057 
 H                     1.19498   2.69346   0.08453 
 H                     1.38953  -1.59728  -1.89343 
 H                     3.80725  -2.02252  -2.06648 
 
 ITRead=  0  0  0  0  0  0  0  0  0  0  0  0  0  0  0  0  0  0  0  0
 ITRead=  0  0  0  0  0  0  0  0  0  0  0  0
 MicOpt= -1 -1 -1 -1 -1 -1 -1 -1 -1 -1 -1 -1 -1 -1 -1 -1 -1 -1 -1 -1
 MicOpt= -1 -1 -1 -1 -1 -1 -1 -1 -1 -1 -1 -1
 NAtoms=     32 NQM=       32 NQMF=       0 NMMI=      0 NMMIF=      0
                NMic=       0 NMicF=      0.
                    Isotopes and Nuclear Properties:
 (Nuclear quadrupole moments (NQMom) in fm**2, nuclear magnetic moments (NMagM)
  in nuclear magnetons)

  Atom         1           2           3           4           5           6           7           8           9          10
 IAtWgt=          12          12          12          12          14          12          12          12          12          12
 AtmWgt=  12.0000000  12.0000000  12.0000000  12.0000000  14.0030740  12.0000000  12.0000000  12.0000000  12.0000000  12.0000000
 NucSpn=           0           0           0           0           2           0           0           0           0           0
 AtZEff=  -0.0000000  -0.0000000  -0.0000000  -0.0000000  -0.0000000  -0.0000000  -0.0000000  -0.0000000  -0.0000000  -0.0000000
 NQMom=    0.0000000   0.0000000   0.0000000   0.0000000   2.0440000   0.0000000   0.0000000   0.0000000   0.0000000   0.0000000
 NMagM=    0.0000000   0.0000000   0.0000000   0.0000000   0.4037610   0.0000000   0.0000000   0.0000000   0.0000000   0.0000000
 AtZNuc=   6.0000000   6.0000000   6.0000000   6.0000000   7.0000000   6.0000000   6.0000000   6.0000000   6.0000000   6.0000000

  Atom        11          12          13          14          15          16          17          18          19          20
 IAtWgt=          12          12          12          12          12          12          12          12          12           1
 AtmWgt=  12.0000000  12.0000000  12.0000000  12.0000000  12.0000000  12.0000000  12.0000000  12.0000000  12.0000000   1.0078250
 NucSpn=           0           0           0           0           0           0           0           0           0           1
 AtZEff=  -0.0000000  -0.0000000  -0.0000000  -0.0000000  -0.0000000  -0.0000000  -0.0000000  -0.0000000  -0.0000000  -0.0000000
 NQMom=    0.0000000   0.0000000   0.0000000   0.0000000   0.0000000   0.0000000   0.0000000   0.0000000   0.0000000   0.0000000
 NMagM=    0.0000000   0.0000000   0.0000000   0.0000000   0.0000000   0.0000000   0.0000000   0.0000000   0.0000000   2.7928460
 AtZNuc=   6.0000000   6.0000000   6.0000000   6.0000000   6.0000000   6.0000000   6.0000000   6.0000000   6.0000000   1.0000000

  Atom        21          22          23          24          25          26          27          28          29          30
 IAtWgt=           1           1           1           1           1           1           1           1           1           1
 AtmWgt=   1.0078250   1.0078250   1.0078250   1.0078250   1.0078250   1.0078250   1.0078250   1.0078250   1.0078250   1.0078250
 NucSpn=           1           1           1           1           1           1           1           1           1           1
 AtZEff=  -0.0000000  -0.0000000  -0.0000000  -0.0000000  -0.0000000  -0.0000000  -0.0000000  -0.0000000  -0.0000000  -0.0000000
 NQMom=    0.0000000   0.0000000   0.0000000   0.0000000   0.0000000   0.0000000   0.0000000   0.0000000   0.0000000   0.0000000
 NMagM=    2.7928460   2.7928460   2.7928460   2.7928460   2.7928460   2.7928460   2.7928460   2.7928460   2.7928460   2.7928460
 AtZNuc=   1.0000000   1.0000000   1.0000000   1.0000000   1.0000000   1.0000000   1.0000000   1.0000000   1.0000000   1.0000000

  Atom        31          32
 IAtWgt=           1           1
 AtmWgt=   1.0078250   1.0078250
 NucSpn=           1           1
 AtZEff=  -0.0000000  -0.0000000
 NQMom=    0.0000000   0.0000000
 NMagM=    2.7928460   2.7928460
 AtZNuc=   1.0000000   1.0000000
 Leave Link  101 at Fri Jun  5 16:57:00 2026, MaxMem=  1258291200 cpu:               0.1 elap:               0.1
 (Enter /apl/gaussian/16c02/g16/l103.exe)

 GradGradGradGradGradGradGradGradGradGradGradGradGradGradGradGradGradGrad
 Berny optimization.
 Initialization pass.
                           ----------------------------
                           !    Initial Parameters    !
                           ! (Angstroms and Degrees)  !
 --------------------------                            --------------------------
 ! Name  Definition              Value          Derivative Info.                !
 --------------------------------------------------------------------------------
 ! R1    R(1,2)                  1.3942         estimate D2E/DX2                !
 ! R2    R(1,19)                 1.3942         estimate D2E/DX2                !
 ! R3    R(1,20)                 1.0871         estimate D2E/DX2                !
 ! R4    R(2,3)                  1.3964         estimate D2E/DX2                !
 ! R5    R(2,21)                 1.0872         estimate D2E/DX2                !
 ! R6    R(3,4)                  1.4007         estimate D2E/DX2                !
 ! R7    R(3,22)                 1.0874         estimate D2E/DX2                !
 ! R8    R(4,5)                  1.4274         estimate D2E/DX2                !
 ! R9    R(4,18)                 1.4007         estimate D2E/DX2                !
 ! R10   R(5,6)                  1.3975         estimate D2E/DX2                !
 ! R11   R(5,17)                 1.3975         estimate D2E/DX2                !
 ! R12   R(6,7)                  1.4113         estimate D2E/DX2                !
 ! R13   R(6,11)                 1.397          estimate D2E/DX2                !
 ! R14   R(7,8)                  1.398          estimate D2E/DX2                !
 ! R15   R(7,23)                 1.0856         estimate D2E/DX2                !
 ! R16   R(8,9)                  1.3881         estimate D2E/DX2                !
 ! R17   R(8,24)                 1.0876         estimate D2E/DX2                !
 ! R18   R(9,10)                 1.3967         estimate D2E/DX2                !
 ! R19   R(9,25)                 1.0869         estimate D2E/DX2                !
 ! R20   R(10,11)                1.4129         estimate D2E/DX2                !
 ! R21   R(10,26)                1.0863         estimate D2E/DX2                !
 ! R22   R(11,12)                1.4253         estimate D2E/DX2                !
 ! R23   R(12,13)                1.4129         estimate D2E/DX2                !
 ! R24   R(12,17)                1.397          estimate D2E/DX2                !
 ! R25   R(13,14)                1.3967         estimate D2E/DX2                !
 ! R26   R(13,27)                1.0863         estimate D2E/DX2                !
 ! R27   R(14,15)                1.3881         estimate D2E/DX2                !
 ! R28   R(14,28)                1.0869         estimate D2E/DX2                !
 ! R29   R(15,16)                1.398          estimate D2E/DX2                !
 ! R30   R(15,29)                1.0876         estimate D2E/DX2                !
 ! R31   R(16,17)                1.4113         estimate D2E/DX2                !
 ! R32   R(16,30)                1.0856         estimate D2E/DX2                !
 ! R33   R(18,19)                1.3964         estimate D2E/DX2                !
 ! R34   R(18,31)                1.0874         estimate D2E/DX2                !
 ! R35   R(19,32)                1.0872         estimate D2E/DX2                !
 ! A1    A(2,1,19)             120.0357         estimate D2E/DX2                !
 ! A2    A(2,1,20)             119.9818         estimate D2E/DX2                !
 ! A3    A(19,1,20)            119.9825         estimate D2E/DX2                !
 ! A4    A(1,2,3)              120.1343         estimate D2E/DX2                !
 ! A5    A(1,2,21)             119.9426         estimate D2E/DX2                !
 ! A6    A(3,2,21)             119.921          estimate D2E/DX2                !
 ! A7    A(2,3,4)              119.9859         estimate D2E/DX2                !
 ! A8    A(2,3,22)             118.6887         estimate D2E/DX2                !
 ! A9    A(4,3,22)             121.2719         estimate D2E/DX2                !
 ! A10   A(3,4,5)              120.1376         estimate D2E/DX2                !
 ! A11   A(3,4,18)             119.7237         estimate D2E/DX2                !
 ! A12   A(5,4,18)             120.1388         estimate D2E/DX2                !
 ! A13   A(4,5,6)              125.3221         estimate D2E/DX2                !
 ! A14   A(4,5,17)             125.3212         estimate D2E/DX2                !
 ! A15   A(6,5,17)             109.3567         estimate D2E/DX2                !
 ! A16   A(5,6,7)              131.6783         estimate D2E/DX2                !
 ! A17   A(5,6,11)             107.4975         estimate D2E/DX2                !
 ! A18   A(7,6,11)             120.7313         estimate D2E/DX2                !
 ! A19   A(6,7,8)              118.9473         estimate D2E/DX2                !
 ! A20   A(6,7,23)             121.6295         estimate D2E/DX2                !
 ! A21   A(8,7,23)             119.4131         estimate D2E/DX2                !
 ! A22   A(7,8,9)              120.8163         estimate D2E/DX2                !
 ! A23   A(7,8,24)             119.4606         estimate D2E/DX2                !
 ! A24   A(9,8,24)             119.7205         estimate D2E/DX2                !
 ! A25   A(8,9,10)             120.2451         estimate D2E/DX2                !
 ! A26   A(8,9,25)             120.0147         estimate D2E/DX2                !
 ! A27   A(10,9,25)            119.7332         estimate D2E/DX2                !
 ! A28   A(9,10,11)            120.0102         estimate D2E/DX2                !
 ! A29   A(9,10,26)            119.8385         estimate D2E/DX2                !
 ! A30   A(11,10,26)           120.1483         estimate D2E/DX2                !
 ! A31   A(6,11,10)            119.1759         estimate D2E/DX2                !
 ! A32   A(6,11,12)            107.8223         estimate D2E/DX2                !
 ! A33   A(10,11,12)           132.9995         estimate D2E/DX2                !
 ! A34   A(11,12,13)           133.0001         estimate D2E/DX2                !
 ! A35   A(11,12,17)           107.8224         estimate D2E/DX2                !
 ! A36   A(13,12,17)           119.1752         estimate D2E/DX2                !
 ! A37   A(12,13,14)           120.0101         estimate D2E/DX2                !
 ! A38   A(12,13,27)           120.1487         estimate D2E/DX2                !
 ! A39   A(14,13,27)           119.8383         estimate D2E/DX2                !
 ! A40   A(13,14,15)           120.2457         estimate D2E/DX2                !
 ! A41   A(13,14,28)           119.7329         estimate D2E/DX2                !
 ! A42   A(15,14,28)           120.0144         estimate D2E/DX2                !
 ! A43   A(14,15,16)           120.8156         estimate D2E/DX2                !
 ! A44   A(14,15,29)           119.7209         estimate D2E/DX2                !
 ! A45   A(16,15,29)           119.4609         estimate D2E/DX2                !
 ! A46   A(15,16,17)           118.9474         estimate D2E/DX2                !
 ! A47   A(15,16,30)           119.4134         estimate D2E/DX2                !
 ! A48   A(17,16,30)           121.629          estimate D2E/DX2                !
 ! A49   A(5,17,12)            107.4978         estimate D2E/DX2                !
 ! A50   A(5,17,16)            131.6774         estimate D2E/DX2                !
 ! A51   A(12,17,16)           120.732          estimate D2E/DX2                !
 ! A52   A(4,18,19)            119.9852         estimate D2E/DX2                !
 ! A53   A(4,18,31)            121.2713         estimate D2E/DX2                !
 ! A54   A(19,18,31)           118.6901         estimate D2E/DX2                !
 ! A55   A(1,19,18)            120.1348         estimate D2E/DX2                !
 ! A56   A(1,19,32)            119.9419         estimate D2E/DX2                !
 ! A57   A(18,19,32)           119.9212         estimate D2E/DX2                !
 ! D1    D(19,1,2,3)            -0.088          estimate D2E/DX2                !
 ! D2    D(19,1,2,21)          179.3893         estimate D2E/DX2                !
 ! D3    D(20,1,2,3)           179.9111         estimate D2E/DX2                !
 ! D4    D(20,1,2,21)           -0.6116         estimate D2E/DX2                !
 ! D5    D(2,1,19,18)           -0.0887         estimate D2E/DX2                !
 ! D6    D(2,1,19,32)          179.3873         estimate D2E/DX2                !
 ! D7    D(20,1,19,18)         179.9122         estimate D2E/DX2                !
 ! D8    D(20,1,19,32)          -0.6119         estimate D2E/DX2                !
 ! D9    D(1,2,3,4)              0.1763         estimate D2E/DX2                !
 ! D10   D(1,2,3,22)           177.5516         estimate D2E/DX2                !
 ! D11   D(21,2,3,4)          -179.3012         estimate D2E/DX2                !
 ! D12   D(21,2,3,22)           -1.9259         estimate D2E/DX2                !
 ! D13   D(2,3,4,5)            179.9103         estimate D2E/DX2                !
 ! D14   D(2,3,4,18)            -0.0879         estimate D2E/DX2                !
 ! D15   D(22,3,4,5)             2.6042         estimate D2E/DX2                !
 ! D16   D(22,3,4,18)         -177.394          estimate D2E/DX2                !
 ! D17   D(3,4,5,6)           -136.013          estimate D2E/DX2                !
 ! D18   D(3,4,5,17)            43.9833         estimate D2E/DX2                !
 ! D19   D(18,4,5,6)            43.9852         estimate D2E/DX2                !
 ! D20   D(18,4,5,17)         -136.0185         estimate D2E/DX2                !
 ! D21   D(3,4,18,19)           -0.088          estimate D2E/DX2                !
 ! D22   D(3,4,18,31)         -177.3947         estimate D2E/DX2                !
 ! D23   D(5,4,18,19)          179.9138         estimate D2E/DX2                !
 ! D24   D(5,4,18,31)            2.607          estimate D2E/DX2                !
 ! D25   D(4,5,6,7)              3.7631         estimate D2E/DX2                !
 ! D26   D(4,5,6,11)          -179.8222         estimate D2E/DX2                !
 ! D27   D(17,5,6,7)          -176.2336         estimate D2E/DX2                !
 ! D28   D(17,5,6,11)            0.1811         estimate D2E/DX2                !
 ! D29   D(4,5,17,12)         -179.8058         estimate D2E/DX2                !
 ! D30   D(4,5,17,16)            3.7769         estimate D2E/DX2                !
 ! D31   D(6,5,17,12)            0.191          estimate D2E/DX2                !
 ! D32   D(6,5,17,16)         -176.2263         estimate D2E/DX2                !
 ! D33   D(5,6,7,8)            178.9802         estimate D2E/DX2                !
 ! D34   D(5,6,7,23)             0.1485         estimate D2E/DX2                !
 ! D35   D(11,6,7,8)             2.9588         estimate D2E/DX2                !
 ! D36   D(11,6,7,23)         -175.8728         estimate D2E/DX2                !
 ! D37   D(5,6,11,10)         -179.9942         estimate D2E/DX2                !
 ! D38   D(5,6,11,12)           -0.4753         estimate D2E/DX2                !
 ! D39   D(7,6,11,10)           -3.109          estimate D2E/DX2                !
 ! D40   D(7,6,11,12)          176.4099         estimate D2E/DX2                !
 ! D41   D(6,7,8,9)             -0.9658         estimate D2E/DX2                !
 ! D42   D(6,7,8,24)           179.6231         estimate D2E/DX2                !
 ! D43   D(23,7,8,9)           177.8921         estimate D2E/DX2                !
 ! D44   D(23,7,8,24)           -1.519          estimate D2E/DX2                !
 ! D45   D(7,8,9,10)            -0.8322         estimate D2E/DX2                !
 ! D46   D(7,8,9,25)          -179.8652         estimate D2E/DX2                !
 ! D47   D(24,8,9,10)          178.5774         estimate D2E/DX2                !
 ! D48   D(24,8,9,25)           -0.4556         estimate D2E/DX2                !
 ! D49   D(8,9,10,11)            0.679          estimate D2E/DX2                !
 ! D50   D(8,9,10,26)         -178.6967         estimate D2E/DX2                !
 ! D51   D(25,9,10,11)         179.7147         estimate D2E/DX2                !
 ! D52   D(25,9,10,26)           0.339          estimate D2E/DX2                !
 ! D53   D(9,10,11,6)            1.2801         estimate D2E/DX2                !
 ! D54   D(9,10,11,12)        -178.0937         estimate D2E/DX2                !
 ! D55   D(26,10,11,6)        -179.3462         estimate D2E/DX2                !
 ! D56   D(26,10,11,12)          1.28           estimate D2E/DX2                !
 ! D57   D(6,11,12,13)        -179.9809         estimate D2E/DX2                !
 ! D58   D(6,11,12,17)           0.5963         estimate D2E/DX2                !
 ! D59   D(10,11,12,13)         -0.5552         estimate D2E/DX2                !
 ! D60   D(10,11,12,17)       -179.978          estimate D2E/DX2                !
 ! D61   D(11,12,13,14)       -178.0899         estimate D2E/DX2                !
 ! D62   D(11,12,13,27)          1.2837         estimate D2E/DX2                !
 ! D63   D(17,12,13,14)          1.2808         estimate D2E/DX2                !
 ! D64   D(17,12,13,27)       -179.3457         estimate D2E/DX2                !
 ! D65   D(11,12,17,5)          -0.4813         estimate D2E/DX2                !
 ! D66   D(11,12,17,16)        176.4061         estimate D2E/DX2                !
 ! D67   D(13,12,17,5)        -179.9978         estimate D2E/DX2                !
 ! D68   D(13,12,17,16)         -3.1104         estimate D2E/DX2                !
 ! D69   D(12,13,14,15)          0.6795         estimate D2E/DX2                !
 ! D70   D(12,13,14,28)        179.7158         estimate D2E/DX2                !
 ! D71   D(27,13,14,15)       -178.696          estimate D2E/DX2                !
 ! D72   D(27,13,14,28)          0.3402         estimate D2E/DX2                !
 ! D73   D(13,14,15,16)         -0.8333         estimate D2E/DX2                !
 ! D74   D(13,14,15,29)        178.5772         estimate D2E/DX2                !
 ! D75   D(28,14,15,16)       -179.8668         estimate D2E/DX2                !
 ! D76   D(28,14,15,29)         -0.4563         estimate D2E/DX2                !
 ! D77   D(14,15,16,17)         -0.9654         estimate D2E/DX2                !
 ! D78   D(14,15,16,30)        177.8938         estimate D2E/DX2                !
 ! D79   D(29,15,16,17)        179.6226         estimate D2E/DX2                !
 ! D80   D(29,15,16,30)         -1.5182         estimate D2E/DX2                !
 ! D81   D(15,16,17,5)         178.9839         estimate D2E/DX2                !
 ! D82   D(15,16,17,12)          2.9596         estimate D2E/DX2                !
 ! D83   D(30,16,17,5)           0.1511         estimate D2E/DX2                !
 ! D84   D(30,16,17,12)       -175.8732         estimate D2E/DX2                !
 ! D85   D(4,18,19,1)            0.1766         estimate D2E/DX2                !
 ! D86   D(4,18,19,32)        -179.2995         estimate D2E/DX2                !
 ! D87   D(31,18,19,1)         177.5525         estimate D2E/DX2                !
 ! D88   D(31,18,19,32)         -1.9235         estimate D2E/DX2                !
 --------------------------------------------------------------------------------
 Trust Radius=3.00D-01 FncErr=1.00D-07 GrdErr=1.00D-06 EigMax=2.50D+02 EigMin=1.00D-04
 Number of steps in this run=    190 maximum allowed number of steps=    192.
 GradGradGradGradGradGradGradGradGradGradGradGradGradGradGradGradGradGrad

 Leave Link  103 at Fri Jun  5 16:57:00 2026, MaxMem=  1258291200 cpu:               0.0 elap:               0.1
 (Enter /apl/gaussian/16c02/g16/l202.exe)
                          Input orientation:                          
 ---------------------------------------------------------------------
 Center     Atomic      Atomic             Coordinates (Angstroms)
 Number     Number       Type             X           Y           Z
 ---------------------------------------------------------------------
      1          6           0        4.321300   -0.739381   -0.414817
      2          6           0        3.842454    0.117703    0.575049
      3          6           0        2.471614    0.356109    0.692844
      4          6           0        1.574541   -0.269391   -0.182313
      5          7           0        0.172453   -0.029501   -0.063589
      6          6           0       -0.823091   -1.008156   -0.128503
      7          6           0       -0.752011   -2.412847   -0.245463
      8          6           0       -1.939065   -3.151095   -0.265664
      9          6           0       -3.170524   -2.520682   -0.152570
     10          6           0       -3.239609   -1.134176    0.001112
     11          6           0       -2.053985   -0.366175    0.027568
     12          6           0       -1.801102    1.025758    0.201323
     13          6           0       -2.645412    2.141077    0.399892
     14          6           0       -2.098278    3.422162    0.501246
     15          6           0       -0.726838    3.607241    0.393555
     16          6           0        0.129641    2.519346    0.200099
     17          6           0       -0.419337    1.220739    0.135809
     18          6           0        2.059038   -1.131288   -1.174417
     19          6           0        3.431439   -1.362265   -1.288828
     20          1           0        5.389117   -0.922082   -0.505208
     21          1           0        4.536863    0.594856    1.262092
     22          1           0        2.120514    0.996730    1.498259
     23          1           0        0.199789   -2.932096   -0.300970
     24          1           0       -1.894236   -4.233547   -0.361712
     25          1           0       -4.085229   -3.107630   -0.167646
     26          1           0       -4.205907   -0.649930    0.110291
     27          1           0       -3.721457    2.006273    0.463938
     28          1           0       -2.752370    4.277526    0.649352
     29          1           0       -0.312076    4.611061    0.450570
     30          1           0        1.194981    2.693456    0.084532
     31          1           0        1.389530   -1.597279   -1.893427
     32          1           0        3.807253   -2.022516   -2.066478
 ---------------------------------------------------------------------
                    Distance matrix (angstroms):
                    1          2          3          4          5
     1  C    0.000000
     2  C    1.394174   0.000000
     3  C    2.418337   1.396394   0.000000
     4  C    2.796361   2.422162   1.400675   0.000000
     5  N    4.223769   3.728061   2.450924   1.427408   0.000000
     6  C    5.159358   4.850758   3.659359   2.509444   1.397529
     7  C    5.344872   5.309052   4.351930   3.164054   2.562821
     8  C    6.710498   6.694610   5.716057   4.544952   3.774082
     9  C    7.705144   7.528105   6.389395   5.252127   4.170059
    10  C    7.582625   7.214723   5.942854   4.894644   3.587012
    11  C    6.401503   5.941537   4.630910   3.635879   2.253593
    12  C    6.401496   5.728347   4.352714   3.635871   2.253590
    13  C    7.582603   6.798318   5.427327   4.894622   3.587002
    14  C    7.705102   6.798323   5.506478   5.252087   4.170040
    15  C    6.710461   5.752238   4.570506   4.544915   3.774069
    16  C    5.344851   4.437731   3.226024   3.164022   2.562808
    17  C    5.159351   4.424080   3.068464   2.509431   1.397525
    18  C    2.418350   2.793060   2.422650   1.400669   2.450933
    19  C    1.394178   2.415217   2.793045   2.422151   3.728064
    20  H    1.087098   2.154129   3.403076   3.883459   5.310868
    21  H    2.153759   1.087156   2.155527   3.407136   4.603838
    22  H    3.393730   2.142448   1.087363   2.173815   2.699530
    23  H    4.669884   4.830910   4.118391   2.999003   2.912414
    24  H    7.130562   7.260889   6.421657   5.270591   4.694048
    25  H    8.737244   8.590840   7.465261   6.331573   5.254861
    26  H    8.543828   8.098233   6.777962   5.800345   4.425517
    27  H    8.543815   7.796909   6.413233   5.800335   4.425516
    28  H    8.737198   7.797523   6.532183   6.331531   5.254841
    29  H    7.130519   6.120938   5.090407   5.270549   4.694033
    30  H    4.669861   3.726155   2.731854   2.998956   2.912387
    31  H    3.393752   3.879610   3.416933   2.173805   2.699539
    32  H    2.153756   3.399918   3.880161   3.407129   4.603851
                    6          7          8          9         10
     6  C    0.000000
     7  C    1.411343   0.000000
     8  C    2.420000   1.398040   0.000000
     9  C    2.792625   2.422698   1.388057   0.000000
    10  C    2.423271   2.807837   2.414653   1.396707   0.000000
    11  C    1.396996   2.441014   2.802673   2.433313   1.412880
    12  C    2.280811   3.622736   4.205141   3.818088   2.602825
    13  C    3.676646   4.973899   5.380425   4.723659   3.352518
    14  C    4.653000   6.034679   6.619759   6.074091   4.723662
    15  C    4.645826   6.053960   6.897765   6.619765   5.380433
    16  C    3.668644   5.030146   6.053956   6.034679   4.973898
    17  C    2.280538   3.668650   4.645825   4.653002   3.676643
    18  C    3.068512   3.226041   4.570588   5.506624   5.427479
    19  C    4.424113   4.437745   5.752312   6.798451   6.798445
    20  H    6.224214   6.324816   7.663428   8.714777   8.646170
    21  H    5.764764   6.268268   7.635694   8.432773   8.065553
    22  H    3.915448   4.787189   6.065976   6.564489   5.959289
    23  H    2.185766   1.085644   2.150326   3.398572   3.892715
    24  H    3.406594   2.152473   1.087629   2.146289   3.398201
    25  H    3.879545   3.405749   2.148841   1.086932   2.153620
    26  H    3.410102   3.894077   3.396431   2.154258   1.086345
    27  H    4.223541   5.371172   5.505242   4.601840   3.210732
    28  H    5.680283   7.040116   7.528820   6.858102   5.472123
    29  H    5.672043   7.072008   7.963112   7.706897   6.463761
    30  H    4.221366   5.474852   6.641059   6.804491   5.858610
    31  H    2.890971   2.822611   4.017897   4.967630   5.023213
    32  H    5.121012   4.924971   6.126728   7.252626   7.397455
                   11         12         13         14         15
    11  C    0.000000
    12  C    1.425348   0.000000
    13  C    2.602830   1.412878   0.000000
    14  C    3.818092   2.433315   1.396713   0.000000
    15  C    4.205151   2.802686   2.414664   1.388056   0.000000
    16  C    3.622737   2.441020   2.807833   2.422683   1.398033
    17  C    2.280808   1.396991   2.423256   2.792606   2.419996
    18  C    4.352829   4.631002   5.942951   6.389446   5.716056
    19  C    5.728435   5.941607   7.214797   7.528139   6.694600
    20  H    7.482823   7.482815   8.646144   8.714729   7.663384
    21  H    6.773987   6.440552   7.397247   7.252423   6.126611
    22  H    4.631078   4.130612   5.022947   4.967390   4.017780
    23  H    3.430945   4.463235   5.858622   6.804503   6.641079
    24  H    3.890196   5.290177   6.463755   7.706894   7.963115
    25  H    3.417549   4.736906   5.472120   6.858104   7.528827
    26  H    2.172126   2.932457   3.210721   4.601834   5.505239
    27  H    2.932472   2.172128   1.086345   2.154262   3.396438
    28  H    4.736910   3.417549   2.153622   1.086931   2.148836
    29  H    5.290185   3.890209   3.398212   2.146291   1.087628
    30  H    4.463224   3.430943   3.892710   3.398561   2.150322
    31  H    4.130815   4.631245   5.959477   6.564606   6.065998
    32  H    6.440699   6.774108   8.065691   8.432854   7.635699
                   16         17         18         19         20
    16  C    0.000000
    17  C    1.411344   0.000000
    18  C    4.351895   3.659380   0.000000
    19  C    5.309019   4.850771   1.396398   0.000000
    20  H    6.324790   6.224205   3.403092   2.154141   0.000000
    21  H    4.924946   5.120953   3.880177   3.399923   2.480078
    22  H    2.822615   2.890899   3.416934   3.879592   4.287130
    23  H    5.474871   4.221390   2.731781   3.726097   5.568752
    24  H    7.072007   5.672045   5.090469   6.120999   8.002101
    25  H    7.040116   5.680285   6.532345   7.797670   9.729019
    26  H    5.371159   4.223525   6.413401   7.797051   9.618596
    27  H    3.894074   3.410092   6.778098   8.098343   9.618579
    28  H    3.405733   3.879525   7.465323   8.590884   9.728965
    29  H    2.152469   3.406591   6.421630   7.260856   8.002049
    30  H    1.085642   2.185760   4.118278   4.830811   5.568724
    31  H    4.787147   3.915485   1.087365   2.142467   4.287160
    32  H    6.268230   5.764793   2.155532   1.087155   2.480083
                   21         22         23         24         25
    21  H    0.000000
    22  H    2.460898   0.000000
    23  H    5.804547   4.728857   0.000000
    24  H    8.204222   6.850804   2.466254   0.000000
    25  H    9.491735   7.624452   4.290684   2.470992   0.000000
    26  H    8.905738   6.682930   4.978712   4.290562   2.476309
    27  H    8.415996   6.018108   6.352066   6.554066   5.165582
    28  H    8.189654   5.935425   7.848376   8.613769   7.548810
    29  H    6.348282   4.480908   7.597765   9.021648   8.613773
    30  H    4.118124   2.394602   5.725894   7.597748   7.848364
    31  H    4.966736   4.332062   2.394397   4.480980   5.935694
    32  H    4.296783   4.966718   4.118028   6.348375   8.189891
                   26         27         28         29         30
    26  H    0.000000
    27  H    2.723081   0.000000
    28  H    5.165576   2.476307   0.000000
    29  H    6.554062   4.290569   2.470991   0.000000
    30  H    6.352045   4.978708   4.290674   2.466255   0.000000
    31  H    6.018411   6.683183   7.624592   6.850787   4.728698
    32  H    8.416237   8.905931   9.491834   8.204191   5.804412
                   31         32
    31  H    0.000000
    32  H    2.460926   0.000000
 Stoichiometry    C18H13N
 Framework group  C1[X(C18H13N)]
 Deg. of freedom    90
 Full point group                 C1      NOp   1
 Largest Abelian subgroup         C1      NOp   1
 Largest concise Abelian subgroup C1      NOp   1
                         Standard orientation:                         
 ---------------------------------------------------------------------
 Center     Atomic      Atomic             Coordinates (Angstroms)
 Number     Number       Type             X           Y           Z
 ---------------------------------------------------------------------
      1          6           0        4.464257   -0.000018    0.000136
      2          6           0        3.767501    0.900466    0.804736
      3          6           0        2.371113    0.904480    0.805732
      4          6           0        1.667896   -0.000007   -0.000046
      5          7           0        0.240487   -0.000011   -0.000094
      6          6           0       -0.567523   -1.139366    0.045460
      7          6           0       -0.251904   -2.509360    0.169518
      8          6           0       -1.292150   -3.442579    0.208333
      9          6           0       -2.617118   -3.033482    0.146664
     10          6           0       -2.930777   -1.675091    0.061909
     11          6           0       -1.897456   -0.712255    0.024188
     12          6           0       -1.897442    0.712275   -0.024097
     13          6           0       -2.930733    1.675148   -0.061667
     14          6           0       -2.617035    3.033528   -0.146550
     15          6           0       -1.292068    3.442580   -0.208504
     16          6           0       -0.251858    2.509326   -0.169829
     17          6           0       -0.567507    1.139352   -0.045629
     18          6           0        2.371196   -0.904500   -0.805735
     19          6           0        3.767587   -0.900492   -0.804558
     20          1           0        5.551355   -0.000014    0.000201
     21          1           0        4.312234    1.595270    1.439102
     22          1           0        1.851565    1.588944    1.472019
     23          1           0        0.774892   -2.851682    0.253946
     24          1           0       -1.058211   -4.500996    0.297561
     25          1           0       -3.415700   -3.770076    0.180085
     26          1           0       -3.970398   -1.361035    0.035382
     27          1           0       -3.970362    1.361138   -0.034930
     28          1           0       -3.415596    3.770149   -0.179838
     29          1           0       -1.058107    4.500984   -0.297832
     30          1           0        0.774938    2.851597   -0.254451
     31          1           0        1.851706   -1.588960   -1.472073
     32          1           0        4.312400   -1.595279   -1.438874
 ---------------------------------------------------------------------
 Rotational constants (GHZ):           0.5328475           0.3529646           0.2201697
 Leave Link  202 at Fri Jun  5 16:57:00 2026, MaxMem=  1258291200 cpu:               0.0 elap:               0.1
 (Enter /apl/gaussian/16c02/g16/l301.exe)
 Standard basis: 6-31G(d) (6D, 7F)
 Ernie: Thresh=  0.10000D-02 Tol=  0.10000D-05 Strict=F.
 There are   311 symmetry adapted cartesian basis functions of A   symmetry.
 There are   311 symmetry adapted basis functions of A   symmetry.
   311 basis functions,   584 primitive gaussians,   311 cartesian basis functions
    64 alpha electrons       64 beta electrons
       nuclear repulsion energy      1278.4646702814 Hartrees.
 IExCor=  402 DFT=T Ex+Corr=B3LYP ExCW=0 ScaHFX=  0.200000
 ScaDFX=  0.800000  0.720000  1.000000  0.810000 ScalE2=  1.000000  1.000000
 IRadAn=      5 IRanWt=     -1 IRanGd=            0 ICorTp=0 IEmpDi=  4
 NAtoms=   32 NActive=   32 NUniq=   32 SFac= 1.00D+00 NAtFMM=   60 NAOKFM=F Big=F
 Integral buffers will be    131072 words long.
 Raffenetti 2 integral format.
 Two-electron integral symmetry is turned on.
 Leave Link  301 at Fri Jun  5 16:57:00 2026, MaxMem=  1258291200 cpu:               0.1 elap:               0.1
 (Enter /apl/gaussian/16c02/g16/l302.exe)
 NPDir=0 NMtPBC=     1 NCelOv=     1 NCel=       1 NClECP=     1 NCelD=      1
         NCelK=      1 NCelE2=     1 NClLst=     1 CellRange=     0.0.
 One-electron integrals computed using PRISM.
 One-electron integral symmetry used in STVInt
 NBasis=   311 RedAO= T EigKep=  2.72D-04  NBF=   311
 NBsUse=   311 1.00D-06 EigRej= -1.00D+00 NBFU=   311
 Precomputing XC quadrature grid using
 IXCGrd= 4 IRadAn=           5 IRanWt=          -1 IRanGd=           0 AccXCQ= 0.00D+00.
 Generated NRdTot=       0 NPtTot=           0 NUsed=           0 NTot=          32
 NSgBfM=   310   310   310   310   310 MxSgAt=    32 MxSgA2=    32.
 Leave Link  302 at Fri Jun  5 16:57:01 2026, MaxMem=  1258291200 cpu:               1.5 elap:               0.3
 (Enter /apl/gaussian/16c02/g16/l303.exe)
 DipDrv:  MaxL=1.
 Leave Link  303 at Fri Jun  5 16:57:01 2026, MaxMem=  1258291200 cpu:               0.1 elap:               0.1
 (Enter /apl/gaussian/16c02/g16/l401.exe)
 ExpMin= 1.61D-01 ExpMax= 4.17D+03 ExpMxC= 6.27D+02 IAcc=3 IRadAn=         5 AccDes= 0.00D+00
 Harris functional with IExCor=  402 and IRadAn=       5 diagonalized for initial guess.
 HarFok:  IExCor=  402 AccDes= 0.00D+00 IRadAn=         5 IDoV= 1 UseB2=F ITyADJ=14
 ICtDFT=  3500011 ScaDFX=  1.000000  1.000000  1.000000  1.000000
 FoFCou: FMM=F IPFlag=           0 FMFlag=      100000 FMFlg1=           0
         NFxFlg=           0 DoJE=T BraDBF=F KetDBF=T FulRan=T
         wScrn=  0.000000 ICntrl=       500 IOpCl=  0 I1Cent=   200000004 NGrid=           0
         NMat0=    1 NMatS0=      1 NMatT0=    0 NMatD0=    1 NMtDS0=    0 NMtDT0=    0
 Petite list used in FoFCou.
 Harris En= -748.522075799973    
 JPrj=0 DoOrth=F DoCkMO=F.
 Leave Link  401 at Fri Jun  5 16:57:03 2026, MaxMem=  1258291200 cpu:              13.9 elap:               1.8
 (Enter /apl/gaussian/16c02/g16/l502.exe)
 Integral symmetry usage will be decided dynamically.
 Closed shell SCF:
 Using DIIS extrapolation, IDIIS=  1040.
 NGot=  1258291200 LenX=  1258091161 LenY=  1257993999
 Requested convergence on RMS density matrix=1.00D-08 within 128 cycles.
 Requested convergence on MAX density matrix=1.00D-06.
 Requested convergence on             energy=1.00D-06.
 No special actions if energy rises.
 Fock matrices will be formed incrementally for  20 cycles.
 Integral accuracy reduced to 1.0D-05 until final iterations.

 Cycle   1  Pass 0  IDiag  1:
 FoFJK:  IHMeth= 1 ICntrl=       0 DoSepK=F KAlg= 0 I1Cent=           0 FoldK=F
 IRaf= 820000000 NMat=       1 IRICut=       1 DoRegI=T DoRafI=F ISym2E= 0 IDoP0=0 IntGTp=1.
 FoFCou: FMM=F IPFlag=           0 FMFlag=      100000 FMFlg1=           0
         NFxFlg=           0 DoJE=F BraDBF=F KetDBF=F FulRan=T
         wScrn=  0.000000 ICntrl=         0 IOpCl=  0 I1Cent=           0 NGrid=           0
         NMat0=    1 NMatS0=      1 NMatT0=    0 NMatD0=    1 NMtDS0=    0 NMtDT0=    0
 Symmetry not used in FoFCou.
 E= -748.104448609173    
 DIIS: error= 3.90D-02 at cycle   1 NSaved=   1.
 NSaved= 1 IEnMin= 1 EnMin= -748.104448609173     IErMin= 1 ErrMin= 3.90D-02
 ErrMax= 3.90D-02  0.00D+00 EMaxC= 1.00D-01 BMatC= 3.77D-01 BMatP= 3.77D-01
 IDIUse=3 WtCom= 6.10D-01 WtEn= 3.90D-01
 Coeff-Com:  0.100D+01
 Coeff-En:   0.100D+01
 Coeff:      0.100D+01
 Gap=     0.219 Goal=   None    Shift=    0.000
 GapD=    0.219 DampG=1.000 DampE=0.500 DampFc=0.5000 IDamp=-1.
 Damping current iteration by 5.00D-01
 RMSDP=5.19D-03 MaxDP=1.21D-01              OVMax= 2.46D-01

 Cycle   2  Pass 0  IDiag  1:
 RMSU=  2.51D-03    CP:  9.66D-01
 E= -748.272324139434     Delta-E=       -0.167875530261 Rises=F Damp=T
 DIIS: error= 1.43D-02 at cycle   2 NSaved=   2.
 NSaved= 2 IEnMin= 2 EnMin= -748.272324139434     IErMin= 2 ErrMin= 1.43D-02
 ErrMax= 1.43D-02  0.00D+00 EMaxC= 1.00D-01 BMatC= 4.21D-02 BMatP= 3.77D-01
 IDIUse=3 WtCom= 8.57D-01 WtEn= 1.43D-01
 Coeff-Com:  0.932D-01 0.907D+00
 Coeff-En:   0.154D+00 0.846D+00
 Coeff:      0.102D+00 0.898D+00
 Gap=     0.212 Goal=   None    Shift=    0.000
 RMSDP=2.03D-03 MaxDP=1.10D-01 DE=-1.68D-01 OVMax= 2.68D-01

 Cycle   3  Pass 0  IDiag  1:
 RMSU=  1.94D-03    CP:  9.43D-01  8.35D-01
 E= -748.437237882460     Delta-E=       -0.164913743026 Rises=F Damp=F
 DIIS: error= 2.02D-02 at cycle   3 NSaved=   3.
 NSaved= 3 IEnMin= 3 EnMin= -748.437237882460     IErMin= 2 ErrMin= 1.43D-02
 ErrMax= 2.02D-02  0.00D+00 EMaxC= 1.00D-01 BMatC= 7.21D-02 BMatP= 4.21D-02
 IDIUse=2 WtCom= 0.00D+00 WtEn= 1.00D+00
 Coeff-En:   0.000D+00 0.000D+00 0.100D+01
 Coeff:      0.000D+00 0.000D+00 0.100D+01
 Gap=     0.232 Goal=   None    Shift=    0.000
 RMSDP=3.35D-03 MaxDP=1.61D-01 DE=-1.65D-01 OVMax= 2.67D-01

 Cycle   4  Pass 0  IDiag  1:
 RMSU=  1.82D-03    CP:  9.46D-01  1.37D+00 -2.72D-01
 E= -748.065718676703     Delta-E=        0.371519205756 Rises=F Damp=F
 DIIS: error= 5.76D-02 at cycle   4 NSaved=   4.
 NSaved= 4 IEnMin= 3 EnMin= -748.437237882460     IErMin= 2 ErrMin= 1.43D-02
 ErrMax= 5.76D-02  0.00D+00 EMaxC= 1.00D-01 BMatC= 4.15D-01 BMatP= 4.21D-02
 IDIUse=2 WtCom= 0.00D+00 WtEn= 1.00D+00
 Coeff-En:   0.000D+00 0.000D+00 0.791D+00 0.209D+00
 Coeff:      0.000D+00 0.000D+00 0.791D+00 0.209D+00
 Gap=     0.193 Goal=   None    Shift=    0.000
 RMSDP=1.72D-03 MaxDP=7.49D-02 DE= 3.72D-01 OVMax= 1.62D-01

 Cycle   5  Pass 0  IDiag  1:
 RMSU=  2.97D-04    CP:  9.46D-01  1.07D+00  3.60D-01  5.09D-01
 E= -748.480315037124     Delta-E=       -0.414596360421 Rises=F Damp=F
 DIIS: error= 1.65D-02 at cycle   5 NSaved=   5.
 NSaved= 5 IEnMin= 5 EnMin= -748.480315037124     IErMin= 2 ErrMin= 1.43D-02
 ErrMax= 1.65D-02  0.00D+00 EMaxC= 1.00D-01 BMatC= 3.36D-02 BMatP= 4.21D-02
 IDIUse=3 WtCom= 8.35D-01 WtEn= 1.65D-01
 Coeff-Com: -0.154D-02 0.202D-01 0.305D+00-0.101D+00 0.778D+00
 Coeff-En:   0.000D+00 0.000D+00 0.362D+00 0.000D+00 0.638D+00
 Coeff:     -0.129D-02 0.169D-01 0.314D+00-0.848D-01 0.755D+00
 Gap=     0.170 Goal=   None    Shift=    0.000
 RMSDP=7.05D-04 MaxDP=3.81D-02 DE=-4.15D-01 OVMax= 6.91D-02

 Cycle   6  Pass 0  IDiag  1:
 RMSU=  7.70D-05    CP:  9.45D-01  9.67D-01  6.24D-01  2.93D-01  8.27D-01
 E= -748.516559362205     Delta-E=       -0.036244325081 Rises=F Damp=F
 DIIS: error= 1.38D-03 at cycle   6 NSaved=   6.
 NSaved= 6 IEnMin= 6 EnMin= -748.516559362205     IErMin= 6 ErrMin= 1.38D-03
 ErrMax= 1.38D-03  0.00D+00 EMaxC= 1.00D-01 BMatC= 1.70D-04 BMatP= 3.36D-02
 IDIUse=3 WtCom= 9.86D-01 WtEn= 1.38D-02
 Coeff-Com: -0.336D-02 0.116D-01 0.129D+00-0.681D-01 0.426D+00 0.505D+00
 Coeff-En:   0.000D+00 0.000D+00 0.000D+00 0.000D+00 0.000D+00 0.100D+01
 Coeff:     -0.331D-02 0.115D-01 0.128D+00-0.672D-01 0.420D+00 0.512D+00
 Gap=     0.169 Goal=   None    Shift=    0.000
 RMSDP=4.35D-05 MaxDP=3.99D-03 DE=-3.62D-02 OVMax= 3.60D-03

 Cycle   7  Pass 0  IDiag  1:
 RMSU=  1.93D-05    CP:  9.45D-01  9.72D-01  6.19D-01  2.96D-01  8.66D-01
                    CP:  5.67D-01
 E= -748.516695645695     Delta-E=       -0.000136283490 Rises=F Damp=F
 DIIS: error= 2.55D-04 at cycle   7 NSaved=   7.
 NSaved= 7 IEnMin= 7 EnMin= -748.516695645695     IErMin= 7 ErrMin= 2.55D-04
 ErrMax= 2.55D-04  0.00D+00 EMaxC= 1.00D-01 BMatC= 5.97D-06 BMatP= 1.70D-04
 IDIUse=3 WtCom= 9.97D-01 WtEn= 2.55D-03
 Coeff-Com: -0.281D-03-0.274D-03 0.234D-01-0.114D-01 0.738D-01 0.190D+00
 Coeff-Com:  0.724D+00
 Coeff-En:   0.000D+00 0.000D+00 0.000D+00 0.000D+00 0.000D+00 0.000D+00
 Coeff-En:   0.100D+01
 Coeff:     -0.280D-03-0.273D-03 0.233D-01-0.114D-01 0.737D-01 0.190D+00
 Coeff:      0.725D+00
 Gap=     0.168 Goal=   None    Shift=    0.000
 RMSDP=9.59D-06 MaxDP=4.78D-04 DE=-1.36D-04 OVMax= 6.03D-04

 Initial convergence to 1.0D-05 achieved.  Increase integral accuracy.
 Cycle   8  Pass 1  IDiag  1:
 E= -748.516701175580     Delta-E=       -0.000005529885 Rises=F Damp=F
 DIIS: error= 8.62D-05 at cycle   1 NSaved=   1.
 NSaved= 1 IEnMin= 1 EnMin= -748.516701175580     IErMin= 1 ErrMin= 8.62D-05
 ErrMax= 8.62D-05  0.00D+00 EMaxC= 1.00D-01 BMatC= 1.55D-06 BMatP= 1.55D-06
 IDIUse=1 WtCom= 1.00D+00 WtEn= 0.00D+00
 Coeff-Com:  0.100D+01
 Coeff:      0.100D+01
 Gap=     0.168 Goal=   None    Shift=    0.000
 RMSDP=9.59D-06 MaxDP=4.78D-04 DE=-5.53D-06 OVMax= 8.10D-04

 Cycle   9  Pass 1  IDiag  1:
 RMSU=  5.25D-05    CP:  1.00D+00
 E= -748.516699282144     Delta-E=        0.000001893436 Rises=F Damp=F
 DIIS: error= 1.31D-04 at cycle   2 NSaved=   2.
 NSaved= 2 IEnMin= 1 EnMin= -748.516701175580     IErMin= 1 ErrMin= 8.62D-05
 ErrMax= 1.31D-04  0.00D+00 EMaxC= 1.00D-01 BMatC= 3.16D-06 BMatP= 1.55D-06
 IDIUse=3 WtCom= 4.66D-01 WtEn= 5.34D-01
 Coeff-Com:  0.602D+00 0.398D+00
 Coeff-En:   0.685D+00 0.315D+00
 Coeff:      0.646D+00 0.354D+00
 Gap=     0.169 Goal=   None    Shift=    0.000
 RMSDP=7.20D-06 MaxDP=2.40D-04 DE= 1.89D-06 OVMax= 6.11D-04

 Cycle  10  Pass 1  IDiag  1:
 RMSU=  7.12D-06    CP:  1.00D+00  9.80D-01
 E= -748.516702656364     Delta-E=       -0.000003374220 Rises=F Damp=F
 DIIS: error= 2.10D-05 at cycle   3 NSaved=   3.
 NSaved= 3 IEnMin= 3 EnMin= -748.516702656364     IErMin= 3 ErrMin= 2.10D-05
 ErrMax= 2.10D-05  0.00D+00 EMaxC= 1.00D-01 BMatC= 6.74D-08 BMatP= 1.55D-06
 IDIUse=1 WtCom= 1.00D+00 WtEn= 0.00D+00
 Coeff-Com:  0.893D-01 0.124D+00 0.787D+00
 Coeff:      0.893D-01 0.124D+00 0.787D+00
 Gap=     0.168 Goal=   None    Shift=    0.000
 RMSDP=1.77D-06 MaxDP=7.10D-05 DE=-3.37D-06 OVMax= 1.57D-04

 Cycle  11  Pass 1  IDiag  1:
 RMSU=  1.39D-06    CP:  1.00D+00  9.90D-01  8.65D-01
 E= -748.516702669755     Delta-E=       -0.000000013391 Rises=F Damp=F
 DIIS: error= 1.50D-05 at cycle   4 NSaved=   4.
 NSaved= 4 IEnMin= 4 EnMin= -748.516702669755     IErMin= 4 ErrMin= 1.50D-05
 ErrMax= 1.50D-05  0.00D+00 EMaxC= 1.00D-01 BMatC= 6.03D-08 BMatP= 6.74D-08
 IDIUse=1 WtCom= 1.00D+00 WtEn= 0.00D+00
 Coeff-Com: -0.926D-03 0.416D-01 0.522D+00 0.437D+00
 Coeff:     -0.926D-03 0.416D-01 0.522D+00 0.437D+00
 Gap=     0.169 Goal=   None    Shift=    0.000
 RMSDP=9.16D-07 MaxDP=3.55D-05 DE=-1.34D-08 OVMax= 6.93D-05

 Cycle  12  Pass 1  IDiag  1:
 RMSU=  2.58D-07    CP:  1.00D+00  9.91D-01  9.00D-01  3.96D-01
 E= -748.516702730494     Delta-E=       -0.000000060739 Rises=F Damp=F
 DIIS: error= 3.65D-06 at cycle   5 NSaved=   5.
 NSaved= 5 IEnMin= 5 EnMin= -748.516702730494     IErMin= 5 ErrMin= 3.65D-06
 ErrMax= 3.65D-06  0.00D+00 EMaxC= 1.00D-01 BMatC= 2.13D-09 BMatP= 6.03D-08
 IDIUse=1 WtCom= 1.00D+00 WtEn= 0.00D+00
 Coeff-Com: -0.267D-02 0.254D-01 0.337D+00 0.293D+00 0.347D+00
 Coeff:     -0.267D-02 0.254D-01 0.337D+00 0.293D+00 0.347D+00
 Gap=     0.168 Goal=   None    Shift=    0.000
 RMSDP=1.73D-07 MaxDP=8.91D-06 DE=-6.07D-08 OVMax= 1.57D-05

 Cycle  13  Pass 1  IDiag  1:
 RMSU=  7.41D-08    CP:  1.00D+00  9.91D-01  9.03D-01  4.39D-01  4.45D-01
 E= -748.516702732631     Delta-E=       -0.000000002137 Rises=F Damp=F
 DIIS: error= 3.90D-07 at cycle   6 NSaved=   6.
 NSaved= 6 IEnMin= 6 EnMin= -748.516702732631     IErMin= 6 ErrMin= 3.90D-07
 ErrMax= 3.90D-07  0.00D+00 EMaxC= 1.00D-01 BMatC= 2.85D-11 BMatP= 2.13D-09
 IDIUse=1 WtCom= 1.00D+00 WtEn= 0.00D+00
 Coeff-Com: -0.125D-02 0.991D-02 0.135D+00 0.116D+00 0.163D+00 0.577D+00
 Coeff:     -0.125D-02 0.991D-02 0.135D+00 0.116D+00 0.163D+00 0.577D+00
 Gap=     0.168 Goal=   None    Shift=    0.000
 RMSDP=2.98D-08 MaxDP=9.53D-07 DE=-2.14D-09 OVMax= 3.43D-06

 Cycle  14  Pass 1  IDiag  1:
 RMSU=  2.30D-08    CP:  1.00D+00  9.91D-01  9.03D-01  4.36D-01  4.90D-01
                    CP:  8.09D-01
 E= -748.516702732653     Delta-E=       -0.000000000022 Rises=F Damp=F
 DIIS: error= 2.56D-07 at cycle   7 NSaved=   7.
 NSaved= 7 IEnMin= 7 EnMin= -748.516702732653     IErMin= 7 ErrMin= 2.56D-07
 ErrMax= 2.56D-07  0.00D+00 EMaxC= 1.00D-01 BMatC= 6.95D-12 BMatP= 2.85D-11
 IDIUse=1 WtCom= 1.00D+00 WtEn= 0.00D+00
 Coeff-Com: -0.436D-03 0.307D-02 0.428D-01 0.356D-01 0.538D-01 0.356D+00
 Coeff-Com:  0.509D+00
 Coeff:     -0.436D-03 0.307D-02 0.428D-01 0.356D-01 0.538D-01 0.356D+00
 Coeff:      0.509D+00
 Gap=     0.168 Goal=   None    Shift=    0.000
 RMSDP=1.17D-08 MaxDP=3.81D-07 DE=-2.21D-11 OVMax= 1.39D-06

 Cycle  15  Pass 1  IDiag  1:
 RMSU=  7.74D-09    CP:  1.00D+00  9.91D-01  9.03D-01  4.36D-01  4.80D-01
                    CP:  8.56D-01  6.81D-01
 E= -748.516702732660     Delta-E=       -0.000000000007 Rises=F Damp=F
 DIIS: error= 3.44D-08 at cycle   8 NSaved=   8.
 NSaved= 8 IEnMin= 8 EnMin= -748.516702732660     IErMin= 8 ErrMin= 3.44D-08
 ErrMax= 3.44D-08  0.00D+00 EMaxC= 1.00D-01 BMatC= 4.34D-13 BMatP= 6.95D-12
 IDIUse=1 WtCom= 1.00D+00 WtEn= 0.00D+00
 Coeff-Com:  0.228D-05-0.209D-03-0.247D-02-0.317D-02-0.509D-02 0.698D-01
 Coeff-Com:  0.226D+00 0.715D+00
 Coeff:      0.228D-05-0.209D-03-0.247D-02-0.317D-02-0.509D-02 0.698D-01
 Coeff:      0.226D+00 0.715D+00
 Gap=     0.168 Goal=   None    Shift=    0.000
 RMSDP=3.68D-09 MaxDP=9.54D-08 DE=-6.82D-12 OVMax= 3.80D-07

 SCF Done:  E(RB3LYP) =  -748.516702733     A.U. after   15 cycles
            NFock= 15  Conv=0.37D-08     -V/T= 2.0097
 KE= 7.413003774758D+02 PE=-4.290404254225D+03 EE= 1.522122503735D+03
 Leave Link  502 at Fri Jun  5 16:57:33 2026, MaxMem=  1258291200 cpu:             221.4 elap:              30.2
 (Enter /apl/gaussian/16c02/g16/l601.exe)
 Copying SCF densities to generalized density rwf, IOpCl= 0 IROHF=0.

 **********************************************************************

            Population analysis using the SCF Density.

 **********************************************************************

 Orbital symmetries:
       Occupied  (A) (A) (A) (A) (A) (A) (A) (A) (A) (A) (A) (A)
                 (A) (A) (A) (A) (A) (A) (A) (A) (A) (A) (A) (A)
                 (A) (A) (A) (A) (A) (A) (A) (A) (A) (A) (A) (A)
                 (A) (A) (A) (A) (A) (A) (A) (A) (A) (A) (A) (A)
                 (A) (A) (A) (A) (A) (A) (A) (A) (A) (A) (A) (A)
                 (A) (A) (A) (A)
       Virtual   (A) (A) (A) (A) (A) (A) (A) (A) (A) (A) (A) (A)
                 (A) (A) (A) (A) (A) (A) (A) (A) (A) (A) (A) (A)
                 (A) (A) (A) (A) (A) (A) (A) (A) (A) (A) (A) (A)
                 (A) (A) (A) (A) (A) (A) (A) (A) (A) (A) (A) (A)
                 (A) (A) (A) (A) (A) (A) (A) (A) (A) (A) (A) (A)
                 (A) (A) (A) (A) (A) (A) (A) (A) (A) (A) (A) (A)
                 (A) (A) (A) (A) (A) (A) (A) (A) (A) (A) (A) (A)
                 (A) (A) (A) (A) (A) (A) (A) (A) (A) (A) (A) (A)
                 (A) (A) (A) (A) (A) (A) (A) (A) (A) (A) (A) (A)
                 (A) (A) (A) (A) (A) (A) (A) (A) (A) (A) (A) (A)
                 (A) (A) (A) (A) (A) (A) (A) (A) (A) (A) (A) (A)
                 (A) (A) (A) (A) (A) (A) (A) (A) (A) (A) (A) (A)
                 (A) (A) (A) (A) (A) (A) (A) (A) (A) (A) (A) (A)
                 (A) (A) (A) (A) (A) (A) (A) (A) (A) (A) (A) (A)
                 (A) (A) (A) (A) (A) (A) (A) (A) (A) (A) (A) (A)
                 (A) (A) (A) (A) (A) (A) (A) (A) (A) (A) (A) (A)
                 (A) (A) (A) (A) (A) (A) (A) (A) (A) (A) (A) (A)
                 (A) (A) (A) (A) (A) (A) (A) (A) (A) (A) (A) (A)
                 (A) (A) (A) (A) (A) (A) (A) (A) (A) (A) (A) (A)
                 (A) (A) (A) (A) (A) (A) (A) (A) (A) (A) (A) (A)
                 (A) (A) (A) (A) (A) (A) (A)
 The electronic state is 1-A.
 Alpha  occ. eigenvalues --  -14.38378 -10.24023 -10.22323 -10.22323 -10.19900
 Alpha  occ. eigenvalues --  -10.19898 -10.19811 -10.19810 -10.19457 -10.18937
 Alpha  occ. eigenvalues --  -10.18937 -10.18793 -10.18793 -10.18620 -10.18619
 Alpha  occ. eigenvalues --  -10.18404 -10.18360 -10.17995 -10.17995  -0.99159
 Alpha  occ. eigenvalues --   -0.86957  -0.84178  -0.83831  -0.78697  -0.75663
 Alpha  occ. eigenvalues --   -0.74972  -0.74292  -0.71582  -0.71306  -0.64609
 Alpha  occ. eigenvalues --   -0.62133  -0.61512  -0.59742  -0.57652  -0.57224
 Alpha  occ. eigenvalues --   -0.53582  -0.51426  -0.51191  -0.48757  -0.46741
 Alpha  occ. eigenvalues --   -0.45997  -0.45332  -0.44774  -0.43245  -0.43171
 Alpha  occ. eigenvalues --   -0.42509  -0.41955  -0.41486  -0.41368  -0.37388
 Alpha  occ. eigenvalues --   -0.37286  -0.36455  -0.35757  -0.35658  -0.34912
 Alpha  occ. eigenvalues --   -0.33723  -0.33438  -0.32442  -0.27900  -0.25882
 Alpha  occ. eigenvalues --   -0.25710  -0.24733  -0.21284  -0.19579
 Alpha virt. eigenvalues --   -0.02729  -0.01337  -0.01063   0.00659   0.03911
 Alpha virt. eigenvalues --    0.04684   0.08663   0.10198   0.10604   0.13184
 Alpha virt. eigenvalues --    0.13538   0.14339   0.14860   0.15840   0.16185
 Alpha virt. eigenvalues --    0.16574   0.17775   0.18245   0.18858   0.19676
 Alpha virt. eigenvalues --    0.20159   0.20396   0.21286   0.22996   0.25800
 Alpha virt. eigenvalues --    0.26832   0.27737   0.28454   0.29466   0.29674
 Alpha virt. eigenvalues --    0.31510   0.32219   0.34213   0.35456   0.37018
 Alpha virt. eigenvalues --    0.38585   0.39269   0.43390   0.46487   0.46659
 Alpha virt. eigenvalues --    0.49981   0.51306   0.52150   0.52452   0.53011
 Alpha virt. eigenvalues --    0.54130   0.54365   0.54794   0.55193   0.55569
 Alpha virt. eigenvalues --    0.56645   0.56997   0.57779   0.58087   0.58832
 Alpha virt. eigenvalues --    0.58870   0.59960   0.60194   0.60335   0.60650
 Alpha virt. eigenvalues --    0.61123   0.61405   0.61797   0.62039   0.62334
 Alpha virt. eigenvalues --    0.62440   0.63236   0.63599   0.64460   0.64666
 Alpha virt. eigenvalues --    0.65479   0.65846   0.69773   0.69918   0.70938
 Alpha virt. eigenvalues --    0.74924   0.77965   0.78145   0.79186   0.81402
 Alpha virt. eigenvalues --    0.82291   0.83007   0.83453   0.83729   0.84425
 Alpha virt. eigenvalues --    0.84682   0.85053   0.86236   0.86294   0.87332
 Alpha virt. eigenvalues --    0.88746   0.89667   0.90699   0.90965   0.91381
 Alpha virt. eigenvalues --    0.92130   0.95233   0.95871   0.96122   0.98674
 Alpha virt. eigenvalues --    0.99166   0.99495   1.00420   1.01955   1.02784
 Alpha virt. eigenvalues --    1.03214   1.07397   1.08330   1.10465   1.12518
 Alpha virt. eigenvalues --    1.13999   1.14759   1.14781   1.17578   1.18796
 Alpha virt. eigenvalues --    1.20446   1.21255   1.21463   1.22715   1.25298
 Alpha virt. eigenvalues --    1.27950   1.29576   1.33031   1.34281   1.34848
 Alpha virt. eigenvalues --    1.39055   1.40455   1.41642   1.42734   1.43437
 Alpha virt. eigenvalues --    1.45025   1.45338   1.45733   1.46174   1.47377
 Alpha virt. eigenvalues --    1.47944   1.49341   1.50222   1.50773   1.51082
 Alpha virt. eigenvalues --    1.51160   1.57821   1.60541   1.62124   1.67254
 Alpha virt. eigenvalues --    1.69872   1.71851   1.75096   1.78932   1.79174
 Alpha virt. eigenvalues --    1.79986   1.81002   1.81501   1.84972   1.85561
 Alpha virt. eigenvalues --    1.86030   1.88162   1.91021   1.92008   1.92479
 Alpha virt. eigenvalues --    1.92579   1.94777   1.95540   1.96629   1.97390
 Alpha virt. eigenvalues --    1.98288   1.99397   2.03726   2.06563   2.07241
 Alpha virt. eigenvalues --    2.08567   2.10027   2.10579   2.12847   2.12982
 Alpha virt. eigenvalues --    2.13633   2.14705   2.16191   2.19278   2.20165
 Alpha virt. eigenvalues --    2.20733   2.22694   2.23098   2.24901   2.26506
 Alpha virt. eigenvalues --    2.26940   2.28541   2.30053   2.30194   2.31603
 Alpha virt. eigenvalues --    2.33448   2.37653   2.38934   2.40705   2.45926
 Alpha virt. eigenvalues --    2.49292   2.52887   2.54043   2.56346   2.58765
 Alpha virt. eigenvalues --    2.59348   2.62551   2.63679   2.64097   2.66727
 Alpha virt. eigenvalues --    2.66905   2.68081   2.70043   2.70804   2.72227
 Alpha virt. eigenvalues --    2.72227   2.73146   2.73784   2.76689   2.79156
 Alpha virt. eigenvalues --    2.82310   2.84759   2.86828   2.89827   2.94684
 Alpha virt. eigenvalues --    2.97570   2.99421   3.16416   3.19958   3.36507
 Alpha virt. eigenvalues --    3.36901   3.44915   3.52203   4.08151   4.08704
 Alpha virt. eigenvalues --    4.09887   4.10459   4.11675   4.14376   4.15760
 Alpha virt. eigenvalues --    4.17015   4.19022   4.28922   4.33728   4.37250
 Alpha virt. eigenvalues --    4.37760   4.43608   4.44284   4.48587   4.69975
 Alpha virt. eigenvalues --    4.77122   4.86273
          Condensed to atoms (all electrons):
               1          2          3          4          5          6
     1  C    4.851378   0.551051  -0.039968  -0.035163   0.000433   0.000011
     2  C    0.551051   4.861402   0.520719  -0.012783   0.004709  -0.000077
     3  C   -0.039968   0.520719   4.993302   0.529918  -0.053449   0.004230
     4  C   -0.035163  -0.012783   0.529918   4.592459   0.248389  -0.038021
     5  N    0.000433   0.004709  -0.053449   0.248389   7.357972   0.264552
     6  C    0.000011  -0.000077   0.004230  -0.038021   0.264552   4.790912
     7  C   -0.000007  -0.000008   0.000486  -0.002465  -0.090291   0.466988
     8  C   -0.000000  -0.000000  -0.000001   0.000103   0.004899  -0.002715
     9  C    0.000000   0.000000   0.000000   0.000005  -0.000315  -0.042345
    10  C    0.000000  -0.000000  -0.000002  -0.000109   0.011253  -0.072123
    11  C   -0.000000   0.000002  -0.000643   0.006120  -0.050401   0.412809
    12  C   -0.000000  -0.000001   0.000591   0.006120  -0.050403   0.018333
    13  C    0.000000  -0.000000   0.000003  -0.000109   0.011253   0.015197
    14  C    0.000000   0.000000  -0.000000   0.000005  -0.000315  -0.000350
    15  C   -0.000000  -0.000003   0.000124   0.000103   0.004899  -0.000003
    16  C   -0.000007  -0.000141  -0.002637  -0.002465  -0.090292   0.002349
    17  C    0.000011   0.000197  -0.005865  -0.038023   0.264549  -0.115201
    18  C   -0.039968  -0.040139  -0.072603   0.529919  -0.053445  -0.005867
    19  C    0.551052  -0.025489  -0.040140  -0.012782   0.004709   0.000197
    20  H    0.359819  -0.043463   0.005091   0.000549   0.000003  -0.000000
    21  H   -0.041813   0.357953  -0.038279   0.003437  -0.000115   0.000001
    22  H    0.004589  -0.039730   0.352599  -0.039731  -0.007454  -0.000009
    23  H   -0.000021  -0.000019  -0.000087   0.003318  -0.006373  -0.036069
    24  H   -0.000000   0.000000   0.000000   0.000001  -0.000086   0.002619
    25  H   -0.000000  -0.000000   0.000000  -0.000000   0.000004   0.000998
    26  H    0.000000   0.000000  -0.000000   0.000002  -0.000102   0.005482
    27  H    0.000000   0.000000  -0.000000   0.000002  -0.000102  -0.000211
    28  H   -0.000000   0.000000   0.000000  -0.000000   0.000004   0.000005
    29  H   -0.000000  -0.000000  -0.000002   0.000001  -0.000086   0.000002
    30  H   -0.000021   0.000521   0.006222   0.003319  -0.006373  -0.000141
    31  H    0.004588   0.000347   0.005158  -0.039732  -0.007452   0.002902
    32  H   -0.041813   0.004657   0.000720   0.003436  -0.000115  -0.000002
               7          8          9         10         11         12
     1  C   -0.000007  -0.000000   0.000000   0.000000  -0.000000  -0.000000
     2  C   -0.000008  -0.000000   0.000000  -0.000000   0.000002  -0.000001
     3  C    0.000486  -0.000001   0.000000  -0.000002  -0.000643   0.000591
     4  C   -0.002465   0.000103   0.000005  -0.000109   0.006120   0.006120
     5  N   -0.090291   0.004899  -0.000315   0.011253  -0.050401  -0.050403
     6  C    0.466988  -0.002715  -0.042345  -0.072123   0.412809   0.018333
     7  C    5.089368   0.519482  -0.024947  -0.060516  -0.048919   0.015685
     8  C    0.519482   4.866032   0.529814  -0.026328  -0.036105  -0.000121
     9  C   -0.024947   0.529814   4.889596   0.503946   0.003129   0.008621
    10  C   -0.060516  -0.026328   0.503946   5.124721   0.504278  -0.108584
    11  C   -0.048919  -0.036105   0.003129   0.504278   5.021790   0.241288
    12  C    0.015685  -0.000121   0.008621  -0.108584   0.241288   5.021795
    13  C   -0.000163   0.000007   0.000101  -0.017206  -0.108586   0.504275
    14  C    0.000001   0.000000   0.000001   0.000101   0.008621   0.003128
    15  C    0.000003  -0.000000   0.000000   0.000007  -0.000121  -0.036104
    16  C   -0.000226   0.000003   0.000001  -0.000163   0.015685  -0.048921
    17  C    0.002350  -0.000003  -0.000350   0.015198   0.018332   0.412804
    18  C   -0.002636   0.000124  -0.000000   0.000003   0.000590  -0.000643
    19  C   -0.000141  -0.000003   0.000000  -0.000000  -0.000001   0.000002
    20  H    0.000000  -0.000000  -0.000000   0.000000   0.000000   0.000000
    21  H    0.000000   0.000000  -0.000000   0.000000  -0.000000   0.000000
    22  H   -0.000001  -0.000000   0.000000   0.000000   0.000008  -0.000208
    23  H    0.344197  -0.039997   0.004326   0.000587   0.004392  -0.000190
    24  H   -0.039265   0.358574  -0.040622   0.004548   0.001016   0.000010
    25  H    0.004753  -0.041817   0.358149  -0.037620   0.002156  -0.000199
    26  H    0.000385   0.004812  -0.047382   0.350284  -0.035539  -0.008389
    27  H   -0.000001   0.000002  -0.000013   0.003056  -0.008388  -0.035539
    28  H   -0.000000  -0.000000  -0.000000  -0.000001  -0.000199   0.002156
    29  H   -0.000000   0.000000   0.000000  -0.000000   0.000010   0.001016
    30  H   -0.000000   0.000000  -0.000000   0.000002  -0.000190   0.004392
    31  H    0.003297   0.000144  -0.000003  -0.000011  -0.000208   0.000008
    32  H    0.000004   0.000000  -0.000000   0.000000   0.000000  -0.000000
              13         14         15         16         17         18
     1  C    0.000000   0.000000  -0.000000  -0.000007   0.000011  -0.039968
     2  C   -0.000000   0.000000  -0.000003  -0.000141   0.000197  -0.040139
     3  C    0.000003  -0.000000   0.000124  -0.002637  -0.005865  -0.072603
     4  C   -0.000109   0.000005   0.000103  -0.002465  -0.038023   0.529919
     5  N    0.011253  -0.000315   0.004899  -0.090292   0.264549  -0.053445
     6  C    0.015197  -0.000350  -0.000003   0.002349  -0.115201  -0.005867
     7  C   -0.000163   0.000001   0.000003  -0.000226   0.002350  -0.002636
     8  C    0.000007   0.000000  -0.000000   0.000003  -0.000003   0.000124
     9  C    0.000101   0.000001   0.000000   0.000001  -0.000350  -0.000000
    10  C   -0.017206   0.000101   0.000007  -0.000163   0.015198   0.000003
    11  C   -0.108586   0.008621  -0.000121   0.015685   0.018332   0.000590
    12  C    0.504275   0.003128  -0.036104  -0.048921   0.412804  -0.000643
    13  C    5.124729   0.503945  -0.026327  -0.060516  -0.072122  -0.000002
    14  C    0.503945   4.889599   0.529814  -0.024948  -0.042346   0.000000
    15  C   -0.026327   0.529814   4.866030   0.519482  -0.002714  -0.000001
    16  C   -0.060516  -0.024948   0.519482   5.089363   0.466992   0.000486
    17  C   -0.072122  -0.042346  -0.002714   0.466992   4.790916   0.004229
    18  C   -0.000002   0.000000  -0.000001   0.000486   0.004229   4.993303
    19  C   -0.000000   0.000000  -0.000000  -0.000008  -0.000077   0.520715
    20  H    0.000000  -0.000000  -0.000000   0.000000  -0.000000   0.005090
    21  H    0.000000  -0.000000   0.000000   0.000004  -0.000002   0.000720
    22  H   -0.000011  -0.000003   0.000144   0.003299   0.002904   0.005158
    23  H    0.000002  -0.000000   0.000000  -0.000001  -0.000141   0.006223
    24  H   -0.000000   0.000000   0.000000  -0.000000   0.000002  -0.000002
    25  H   -0.000001  -0.000000  -0.000000  -0.000000   0.000005   0.000000
    26  H    0.003056  -0.000013   0.000002  -0.000001  -0.000211  -0.000000
    27  H    0.350283  -0.047382   0.004812   0.000385   0.005482  -0.000000
    28  H   -0.037620   0.358149  -0.041818   0.004753   0.000998   0.000000
    29  H    0.004548  -0.040622   0.358575  -0.039265   0.002619   0.000000
    30  H    0.000587   0.004326  -0.039999   0.344199  -0.036068  -0.000087
    31  H    0.000000   0.000000  -0.000000  -0.000001  -0.000009   0.352598
    32  H    0.000000  -0.000000   0.000000   0.000000   0.000001  -0.038279
              19         20         21         22         23         24
     1  C    0.551052   0.359819  -0.041813   0.004589  -0.000021  -0.000000
     2  C   -0.025489  -0.043463   0.357953  -0.039730  -0.000019   0.000000
     3  C   -0.040140   0.005091  -0.038279   0.352599  -0.000087   0.000000
     4  C   -0.012782   0.000549   0.003437  -0.039731   0.003318   0.000001
     5  N    0.004709   0.000003  -0.000115  -0.007454  -0.006373  -0.000086
     6  C    0.000197  -0.000000   0.000001  -0.000009  -0.036069   0.002619
     7  C   -0.000141   0.000000   0.000000  -0.000001   0.344197  -0.039265
     8  C   -0.000003  -0.000000   0.000000  -0.000000  -0.039997   0.358574
     9  C    0.000000  -0.000000  -0.000000   0.000000   0.004326  -0.040622
    10  C   -0.000000   0.000000   0.000000   0.000000   0.000587   0.004548
    11  C   -0.000001   0.000000  -0.000000   0.000008   0.004392   0.001016
    12  C    0.000002   0.000000   0.000000  -0.000208  -0.000190   0.000010
    13  C   -0.000000   0.000000   0.000000  -0.000011   0.000002  -0.000000
    14  C    0.000000  -0.000000  -0.000000  -0.000003  -0.000000   0.000000
    15  C   -0.000000  -0.000000   0.000000   0.000144   0.000000   0.000000
    16  C   -0.000008   0.000000   0.000004   0.003299  -0.000001  -0.000000
    17  C   -0.000077  -0.000000  -0.000002   0.002904  -0.000141   0.000002
    18  C    0.520715   0.005090   0.000720   0.005158   0.006223  -0.000002
    19  C    4.861409  -0.043463   0.004657   0.000347   0.000521  -0.000000
    20  H   -0.043463   0.596180  -0.005601  -0.000169  -0.000000   0.000000
    21  H    0.004657  -0.005601   0.587480  -0.005480  -0.000000  -0.000000
    22  H    0.000347  -0.000169  -0.005480   0.570209  -0.000003   0.000000
    23  H    0.000521  -0.000000  -0.000000  -0.000003   0.585798  -0.005309
    24  H   -0.000000   0.000000  -0.000000   0.000000  -0.005309   0.595830
    25  H    0.000000  -0.000000   0.000000   0.000000  -0.000182  -0.005427
    26  H    0.000000   0.000000  -0.000000  -0.000000   0.000017  -0.000197
    27  H    0.000000   0.000000  -0.000000  -0.000000   0.000000  -0.000000
    28  H   -0.000000  -0.000000  -0.000000   0.000000   0.000000  -0.000000
    29  H    0.000000   0.000000   0.000000  -0.000005  -0.000000  -0.000000
    30  H   -0.000019  -0.000000  -0.000002  -0.000085  -0.000000  -0.000000
    31  H   -0.039729  -0.000169   0.000014  -0.000140  -0.000084  -0.000005
    32  H    0.357953  -0.005601  -0.000190   0.000014  -0.000002   0.000000
              25         26         27         28         29         30
     1  C   -0.000000   0.000000   0.000000  -0.000000  -0.000000  -0.000021
     2  C   -0.000000   0.000000   0.000000   0.000000  -0.000000   0.000521
     3  C    0.000000  -0.000000  -0.000000   0.000000  -0.000002   0.006222
     4  C   -0.000000   0.000002   0.000002  -0.000000   0.000001   0.003319
     5  N    0.000004  -0.000102  -0.000102   0.000004  -0.000086  -0.006373
     6  C    0.000998   0.005482  -0.000211   0.000005   0.000002  -0.000141
     7  C    0.004753   0.000385  -0.000001  -0.000000  -0.000000  -0.000000
     8  C   -0.041817   0.004812   0.000002  -0.000000   0.000000   0.000000
     9  C    0.358149  -0.047382  -0.000013  -0.000000   0.000000  -0.000000
    10  C   -0.037620   0.350284   0.003056  -0.000001  -0.000000   0.000002
    11  C    0.002156  -0.035539  -0.008388  -0.000199   0.000010  -0.000190
    12  C   -0.000199  -0.008389  -0.035539   0.002156   0.001016   0.004392
    13  C   -0.000001   0.003056   0.350283  -0.037620   0.004548   0.000587
    14  C   -0.000000  -0.000013  -0.047382   0.358149  -0.040622   0.004326
    15  C   -0.000000   0.000002   0.004812  -0.041818   0.358575  -0.039999
    16  C   -0.000000  -0.000001   0.000385   0.004753  -0.039265   0.344199
    17  C    0.000005  -0.000211   0.005482   0.000998   0.002619  -0.036068
    18  C    0.000000  -0.000000  -0.000000   0.000000   0.000000  -0.000087
    19  C    0.000000   0.000000   0.000000  -0.000000   0.000000  -0.000019
    20  H   -0.000000   0.000000   0.000000  -0.000000   0.000000  -0.000000
    21  H    0.000000  -0.000000  -0.000000  -0.000000   0.000000  -0.000002
    22  H    0.000000  -0.000000  -0.000000   0.000000  -0.000005  -0.000085
    23  H   -0.000182   0.000017   0.000000   0.000000  -0.000000  -0.000000
    24  H   -0.005427  -0.000197  -0.000000  -0.000000  -0.000000  -0.000000
    25  H    0.599687  -0.005044   0.000000   0.000000  -0.000000   0.000000
    26  H   -0.005044   0.602487   0.002009   0.000000  -0.000000   0.000000
    27  H    0.000000   0.002009   0.602486  -0.005044  -0.000197   0.000017
    28  H    0.000000   0.000000  -0.005044   0.599689  -0.005427  -0.000182
    29  H   -0.000000  -0.000000  -0.000197  -0.005427   0.595829  -0.005309
    30  H    0.000000   0.000000   0.000017  -0.000182  -0.005309   0.585795
    31  H    0.000000  -0.000000  -0.000000   0.000000   0.000000  -0.000003
    32  H   -0.000000  -0.000000  -0.000000   0.000000  -0.000000  -0.000000
              31         32
     1  C    0.004588  -0.041813
     2  C    0.000347   0.004657
     3  C    0.005158   0.000720
     4  C   -0.039732   0.003436
     5  N   -0.007452  -0.000115
     6  C    0.002902  -0.000002
     7  C    0.003297   0.000004
     8  C    0.000144   0.000000
     9  C   -0.000003  -0.000000
    10  C   -0.000011   0.000000
    11  C   -0.000208   0.000000
    12  C    0.000008  -0.000000
    13  C    0.000000   0.000000
    14  C    0.000000  -0.000000
    15  C   -0.000000   0.000000
    16  C   -0.000001   0.000000
    17  C   -0.000009   0.000001
    18  C    0.352598  -0.038279
    19  C   -0.039729   0.357953
    20  H   -0.000169  -0.005601
    21  H    0.000014  -0.000190
    22  H   -0.000140   0.000014
    23  H   -0.000084  -0.000002
    24  H   -0.000005   0.000000
    25  H    0.000000  -0.000000
    26  H   -0.000000  -0.000000
    27  H   -0.000000  -0.000000
    28  H    0.000000   0.000000
    29  H    0.000000  -0.000000
    30  H   -0.000003  -0.000000
    31  H    0.570212  -0.005480
    32  H   -0.005480   0.587480
 Mulliken charges:
               1
     1  C   -0.124149
     2  C   -0.139706
     3  C   -0.165484
     4  C    0.294177
     5  N   -0.760460
     6  C    0.325552
     7  C   -0.177413
     8  C   -0.136903
     9  C   -0.141711
    10  C   -0.195321
    11  C    0.049074
    12  C    0.049077
    13  C   -0.195326
    14  C   -0.141712
    15  C   -0.136902
    16  C   -0.177411
    17  C    0.325547
    18  C   -0.165488
    19  C   -0.139712
    20  H    0.131736
    21  H    0.137217
    22  H    0.153758
    23  H    0.139099
    24  H    0.128314
    25  H    0.124539
    26  H    0.128342
    27  H    0.128342
    28  H    0.124537
    29  H    0.128315
    30  H    0.139100
    31  H    0.153756
    32  H    0.137216
 Sum of Mulliken charges =  -0.00000
 Mulliken charges with hydrogens summed into heavy atoms:
               1
     1  C    0.007587
     2  C   -0.002490
     3  C   -0.011726
     4  C    0.294177
     5  N   -0.760460
     6  C    0.325552
     7  C   -0.038315
     8  C   -0.008589
     9  C   -0.017172
    10  C   -0.066979
    11  C    0.049074
    12  C    0.049077
    13  C   -0.066984
    14  C   -0.017174
    15  C   -0.008587
    16  C   -0.038310
    17  C    0.325547
    18  C   -0.011732
    19  C   -0.002496
 Electronic spatial extent (au):  <R**2>=           4829.6710
 Charge=             -0.0000 electrons
 Dipole moment (field-independent basis, Debye):
    X=              1.4411    Y=              0.0000    Z=              0.0001  Tot=              1.4411
 Quadrupole moment (field-independent basis, Debye-Ang):
   XX=            -94.9965   YY=            -99.7020   ZZ=           -112.3378
   XY=             -0.0001   XZ=             -0.0008   YZ=              2.7527
 Traceless Quadrupole moment (field-independent basis, Debye-Ang):
   XX=              7.3490   YY=              2.6434   ZZ=             -9.9924
   XY=             -0.0001   XZ=             -0.0008   YZ=              2.7527
 Octapole moment (field-independent basis, Debye-Ang**2):
  XXX=             15.7515  YYY=              0.0000  ZZZ=              0.0002  XYY=             -3.8437
  XXY=             -0.0011  XXZ=              0.0057  XZZ=             12.1234  YZZ=              0.0009
  YYZ=             -0.0016  XYZ=             12.7937
 Hexadecapole moment (field-independent basis, Debye-Ang**3):
 XXXX=          -3477.6908 YYYY=          -2375.9993 ZZZZ=           -241.3067 XXXY=             -0.0045
 XXXZ=             -0.0074 YYYX=              0.0009 YYYZ=            -15.1481 ZZZX=              0.0016
 ZZZY=             15.9999 XXYY=          -1017.2563 XXZZ=           -711.4310 YYZZ=           -504.2824
 XXYZ=             41.6139 YYXZ=             -0.0068 ZZXY=              0.0022
 N-N= 1.278464670281D+03 E-N=-4.290404255827D+03  KE= 7.413003774758D+02
 No NMR shielding tensors so no spin-rotation constants.
 Leave Link  601 at Fri Jun  5 16:57:33 2026, MaxMem=  1258291200 cpu:               0.6 elap:               0.2
 (Enter /apl/gaussian/16c02/g16/l701.exe)
 ... and contract with generalized density number  0.
 Compute integral first derivatives.
 Leave Link  701 at Fri Jun  5 16:57:34 2026, MaxMem=  1258291200 cpu:               0.6 elap:               0.2
 (Enter /apl/gaussian/16c02/g16/l702.exe)
 L702 exits ... SP integral derivatives will be done elsewhere.
 Leave Link  702 at Fri Jun  5 16:57:34 2026, MaxMem=  1258291200 cpu:               0.0 elap:               0.1
 (Enter /apl/gaussian/16c02/g16/l703.exe)
 Integral derivatives from FoFJK, PRISM(SPDF).
 Compute integral first derivatives, UseDBF=F ICtDFT=           0.
 Calling FoFJK, ICntrl=      2127 FMM=F ISym2X=0 I1Cent= 0 IOpClX= 0 NMat=1 NMatS=1 NMatT=0.
 FoFJK:  IHMeth= 1 ICntrl=    2127 DoSepK=F KAlg= 0 I1Cent=           0 FoldK=F
 IRaf=         0 NMat=       1 IRICut=       1 DoRegI=T DoRafI=F ISym2E= 0 IDoP0=0 IntGTp=1.
 FoFCou: FMM=F IPFlag=           0 FMFlag=      100000 FMFlg1=         800
         NFxFlg=           0 DoJE=F BraDBF=F KetDBF=F FulRan=T
         wScrn=  0.000000 ICntrl=      2127 IOpCl=  0 I1Cent=           0 NGrid=           0
         NMat0=    1 NMatS0=      1 NMatT0=    0 NMatD0=    1 NMtDS0=    0 NMtDT0=    0
 Symmetry not used in FoFCou.
 Leave Link  703 at Fri Jun  5 16:57:44 2026, MaxMem=  1258291200 cpu:              81.1 elap:              10.3
 (Enter /apl/gaussian/16c02/g16/l716.exe)
 Dipole        = 5.66980352D-01 9.11571989D-06 2.61367005D-05
 ***** Axes restored to original set *****
 -------------------------------------------------------------------
 Center     Atomic                   Forces (Hartrees/Bohr)
 Number     Number              X              Y              Z
 -------------------------------------------------------------------
      1        6           0.004846902   -0.000830150   -0.000413148
      2        6          -0.002205729   -0.000254852   -0.001942928
      3        6           0.005189333   -0.000642043    0.005039907
      4        6          -0.007360984    0.001260161    0.000626865
      5        7           0.024176267   -0.004137142   -0.002056204
      6        6           0.005498050   -0.012019937    0.000813226
      7        6           0.003839837    0.001819189   -0.000366907
      8        6           0.014770146    0.000050273   -0.000032035
[...]
 0715,0.00001961,0.00000520,-0.00000669,0.00032290,0.00012537,-0.000012
 99,-0.00037084,0.00051267,0.00005814,0.00065486,-0.00121345,-0.0003730
 9,-0.01515800,-0.00326890,0.00090633,-0.33284600,-0.03034965,0.0172739
 7,-0.00912268,0.00114268,0.00087718,0.00134060,-0.00265113,0.00015637,
 0.00042460,0.00045132,-0.00000390,0.00100241,0.00260649,0.00057020,-0.
 00011885,0.00001795,-0.00004569,-0.00000268,-0.00000357,0.00001799,-0.
 00000905,0.00000254,0.00000116,-0.00001181,-0.00000259,-0.00000432,0.0
 0001200,-0.00000115,0.00001652,-0.00000633,0.00000779,0.00000398,0.000
 02886,-0.00000077,0.00000146,0.00000096,0.00004305,0.00000697,0.000431
 54,0.00014171,0.00000069,0.35453591,0.00001162,-0.00000474,-0.00000083
 ,0.00000162,0.00001062,-0.00000891,0.00000929,0.00001465,-0.00001359,-
 0.00010378,-0.00039079,-0.00007967,0.00145272,0.00007295,-0.00006344,0
 .00048235,0.00030324,0.00002830,-0.00011183,0.00002609,0.00000391,-0.0
 0004522,0.00006017,0.00001291,-0.00026713,-0.00015984,0.00000920,0.000
 54098,0.00012834,-0.00000448,-0.00097016,0.00077444,0.00037788,0.02621
 180,0.00853261,-0.00117156,-0.02848438,-0.06396392,-0.00068677,-0.0302
 4057,0.00237367,0.00204454,-0.00125502,-0.00514836,-0.00095590,0.00041
 956,-0.00105506,-0.00011959,0.00152001,-0.00367100,-0.00096051,0.00010
 678,-0.00000330,0.00003525,0.00000757,0.00000943,-0.00003491,0.0000010
 4,-0.00000243,0.00000092,0.00000574,-0.00000065,0.00000182,-0.00000491
 ,-0.00001030,0.00000802,-0.00000324,0.00003009,-0.00000090,-0.00003250
 ,0.00001789,-0.00000036,0.00001557,-0.00000561,-0.00000635,-0.00045602
 ,-0.00043189,-0.00003169,0.03221826,0.06131483,0.00001573,-0.00001373,
 -0.00001534,-0.00003504,0.00000576,0.00001464,0.00004238,0.00001672,-0
 .00004625,-0.00007179,-0.00005633,0.00008547,0.00024319,-0.00002690,0.
 00005914,0.00003460,0.00004769,-0.00021900,-0.00000255,0.00000850,0.00
 007258,-0.00001275,0.00001570,-0.00005870,-0.00003796,-0.00003207,0.00
 000191,0.00005007,0.00001907,-0.00030948,-0.00029311,0.00041077,-0.002
 91037,0.00313136,0.00097425,0.00243251,0.01740882,-0.00089098,-0.03631
 395,-0.00156794,0.00014007,0.00256441,0.00019025,-0.00082369,0.0072564
 4,0.00004986,-0.00024292,-0.00013289,0.00066593,-0.00098407,0.00659316
 ,0.00002886,-0.00000991,-0.00000494,0.00000022,0.00000982,0.00000082,0
 .00000050,0.00000135,-0.00000109,0.00000017,-0.00000255,0.00000290,-0.
 00001960,0.00002052,0.00000194,-0.00000094,0.00000075,0.00000818,-0.00
 000212,-0.00000148,0.00004759,0.00000474,-0.00000545,0.00004699,-0.000
 03777,-0.00007574,0.00034967,-0.01928299,0.00098585,0.02560673,0.00000
 096,0.00000657,0.00001696,0.00004519,0.00001352,-0.00000054,-0.0000183
 8,0.00004312,-0.00001912,0.00004276,-0.00000242,-0.00002573,0.00009975
 ,0.00015245,-0.00002430,-0.00011918,-0.00013221,-0.00004305,0.00007198
 ,-0.00004340,-0.00001583,0.00007306,0.00002424,0.00000019,-0.00005952,
 0.00008371,0.00000410,-0.00001114,-0.00003961,-0.00000641,0.00071902,-
 0.00016359,0.00002010,-0.00076966,-0.00299924,0.00029842,0.01152202,-0
 .01232199,-0.00176378,-0.15436462,0.13110221,0.01969880,-0.01375348,0.
 02751868,0.00328532,-0.00499808,-0.00249867,0.00062948,-0.00056299,-0.
 00122430,-0.00005192,0.00000415,-0.00000705,-0.00003038,-0.00001586,-0
 .00000136,-0.00000270,-0.00000759,0.00000164,0.00000358,-0.00000460,-0
 .00000272,-0.00000272,0.00000160,-0.00001650,0.00004782,0.00000052,-0.
 00002660,-0.00000352,0.00000299,0.00000565,0.00000084,0.00000427,-0.00
 000226,0.00000147,-0.00001894,-0.00001165,0.00000431,0.00092387,0.0005
 4483,-0.00030503,0.16094060,0.00001737,-0.00000014,0.00000625,-0.00000
 152,0.00000208,-0.00000841,0.00003780,0.00000686,-0.00001741,-0.000186
 42,0.00000810,0.00001902,0.00022045,0.00014996,0.00002975,-0.00026723,
 -0.00064294,-0.00002305,0.00017076,0.00007618,-0.00000057,-0.00005908,
 -0.00004457,-0.00000388,-0.00000564,-0.00004462,0.00000348,0.00015632,
 -0.00000907,-0.00001636,0.00125631,-0.00001640,-0.00013081,-0.00414784
 ,-0.00358127,-0.00069166,0.01918458,-0.01910016,-0.00299398,0.13096761
 ,-0.24111416,-0.02675339,-0.00418952,0.00645430,0.00078536,-0.00120225
 ,0.00103512,-0.00028921,-0.00091362,-0.00000623,0.00012494,0.00004838,
 -0.00002079,-0.00000520,-0.00001620,0.00000669,0.00000168,0.00000712,-
 0.00000209,0.00000036,0.00000936,0.00000099,0.00000425,-0.00001395,0.0
 0000004,-0.00000715,0.00001225,-0.00006565,-0.00000157,-0.00000100,-0.
 00001831,-0.00000279,-0.00001432,-0.00004090,-0.00000353,-0.00003867,0
 .00001361,0.00000184,-0.00019224,0.00106272,0.00044750,-0.14102161,0.2
 5486857,0.00000061,-0.00002110,-0.00006526,-0.00006926,0.00000543,0.00
 002757,0.00005159,-0.00007843,0.00007358,0.00008732,0.00002223,-0.0001
 1220,-0.00011170,-0.00001052,-0.00030109,-0.00000953,0.00005737,-0.000
 50890,-0.00000938,-0.00000470,-0.00009600,0.00000848,-0.00000875,0.000
 05345,-0.00001363,0.00000963,-0.00008506,0.00000356,-0.00001168,-0.000
 00895,0.00011127,-0.00004126,0.00096781,0.00022769,-0.00072493,0.00730
 257,0.00078599,-0.00071743,0.00073485,0.01970631,-0.02673448,-0.035321
 59,0.00067273,-0.00154441,0.00052774,0.00075734,-0.00026491,0.00569650
 ,-0.00008770,0.00015723,-0.00039546,-0.00001373,0.00005879,0.00002720,
 0.00006114,-0.00000929,0.00002277,0.00000245,0.00000091,-0.00000296,-0
 .00000343,-0.00000576,0.00000599,0.00001584,0.00000983,-0.00002107,-0.
 00000749,0.00000422,-0.00004666,0.00000048,-0.00000254,0.00000564,-0.0
 0000027,-0.00000425,0.00002060,0.00000113,-0.00000275,0.00004766,-0.00
 034564,0.00038580,-0.00404373,-0.02155802,0.02922354,0.02830309,-0.000
 00960,-0.00000228,-0.00000636,-0.00001813,-0.00000360,0.00000941,0.000
 00283,-0.00001577,0.00000709,0.00009865,-0.00002714,0.00000526,0.00097
 009,0.00072829,0.00004352,-0.00031994,0.00009134,0.00002798,0.00013866
 ,0.00006586,-0.00003452,-0.00008403,0.00001719,0.00000799,0.00004931,-
 0.00004712,-0.00001320,0.00000916,0.00006389,0.00001001,0.00013597,-0.
 00013299,-0.00006209,-0.00078795,0.00098930,0.00009143,-0.00572831,0.0
 0072405,0.00093736,-0.00726927,-0.03060396,-0.00166517,-0.10381768,-0.
 10175319,-0.00238101,0.01110242,0.01905560,0.00070012,-0.00235604,0.00
 326688,0.00101606,-0.00001428,0.00001194,-0.00000040,0.00000473,-0.000
 00525,0.00000606,0.00000147,0.00000206,-0.00000166,-0.00000386,0.00000
 417,-0.00000275,0.00001243,0.00001364,-0.00000935,0.00000134,-0.000006
 12,-0.00000049,0.00001340,-0.00000052,0.00000634,-0.00000117,-0.000005
 50,-0.00000033,0.00003838,0.00002490,0.00000373,-0.00058006,-0.0015781
 4,-0.00008823,0.00101652,0.00044034,-0.00030384,0.10639121,0.00004390,
 -0.00000604,-0.00001236,-0.00002344,0.00001186,-0.00001111,0.00008612,
 0.00001047,-0.00002417,-0.00047753,0.00004586,0.00002626,-0.00094448,-
 0.00110689,-0.00007595,0.00060119,-0.00013785,-0.00007234,-0.00016683,
 -0.00006958,0.00002992,0.00007684,-0.00005021,-0.00001002,-0.00004864,
 0.00002210,0.00001139,-0.00000213,-0.00006582,-0.00001143,-0.00008647,
 0.00021177,0.00007297,0.00059701,0.00024246,0.00001497,-0.00048195,0.0
 0157840,-0.00025872,0.00075414,0.00028741,-0.00019209,-0.10135215,-0.2
 9415310,-0.01217546,-0.01178302,-0.01909772,-0.00064129,0.00407321,-0.
 00144896,-0.00099832,0.00009266,-0.00002401,0.00001636,-0.00000361,0.0
 0000721,0.00000083,0.00001108,-0.00000582,0.00000036,0.00002393,-0.000
 00819,0.00001394,-0.00003411,-0.00001496,-0.00002349,0.00001136,-0.000
 01035,-0.00000080,-0.00001324,-0.00002215,-0.00000756,-0.00001203,-0.0
 0001439,-0.00000084,-0.00000667,0.00000880,-0.00000212,0.00007972,-0.0
 0009473,-0.00003772,-0.00032591,0.00080254,0.00033878,0.10914320,0.312
 07549,-0.00000037,0.00000498,0.00001134,0.00002216,0.00000464,-0.00000
 466,-0.00001675,0.00004992,0.00000724,-0.00006044,-0.00000566,0.000086
 57,0.00001106,-0.00015368,0.00099068,0.00002818,-0.00003867,-0.0001001
 4,-0.00003880,0.00004333,-0.00041187,-0.00000125,-0.00001556,0.0000199
 8,-0.00000208,0.00000795,-0.00008823,0.00000871,-0.00001821,0.00007706
 ,-0.00004760,0.00009356,-0.00050283,0.00012388,-0.00008466,-0.00063301
 ,0.00087940,-0.00035947,0.00581142,0.00054196,0.00217311,0.00197162,-0
 .00206924,-0.01225598,-0.03450805,-0.00170834,-0.00281157,0.00189441,0
 .00087038,-0.00102380,0.00686004,0.00001029,-0.00001005,-0.00000894,-0
 .00001300,-0.00000349,-0.00001456,0.00000127,-0.00000301,0.00000084,-0
 .00000353,0.00000124,-0.00000065,-0.00000468,-0.00000635,0.00001221,0.
 00000016,-0.00000119,-0.00000582,0.00000578,-0.00000854,0.00010187,-0.
 00000094,-0.00000205,0.00000589,-0.00000016,-0.00000508,0.00004717,0.0
 0007596,0.00010891,0.00031444,-0.00036671,0.00030201,-0.00338106,0.002
 14880,0.01361824,0.02563578,0.00000850,0.00000688,0.00015789,0.0000328
 4,0.00020415,-0.00005241,-0.00032638,0.00063932,-0.00067700,0.00002000
 ,0.00052398,0.00004954,-0.00005540,0.00092592,-0.00024031,-0.00023508,
 -0.00050875,-0.00006458,0.00002382,0.00018257,0.00000885,-0.00012052,-
 0.00009551,0.00000036,0.00001806,-0.00008208,-0.00000685,0.00017330,-0
 .00011220,-0.00004555,-0.00069047,0.00013456,0.00011020,0.00152983,-0.
 00182020,0.00034139,0.00056346,-0.00015895,-0.00006862,0.00065712,0.00
 350222,0.00083608,-0.01421090,-0.00433043,0.00104628,-0.33574268,-0.03
 610818,0.02220675,-0.00947492,-0.00021875,0.00106562,0.00027380,-0.000
 26646,-0.00018337,-0.00016623,0.00003507,-0.00002731,-0.00001040,-0.00
 000669,0.00001900,0.00000158,-0.00000090,-0.00000860,-0.00013933,0.000
 31979,0.00026316,0.00002259,-0.00004231,-0.00000394,-0.00000179,-0.000
 01437,-0.00000162,-0.00000173,-0.00003471,0.00000004,-0.00000384,0.000
 01502,0.00000355,-0.00010190,-0.00000612,-0.00011277,-0.00076274,-0.00
 025676,0.00003828,0.00100484,0.00016554,-0.00039467,0.35772153,0.00006
 342,0.00008159,0.00025436,0.00052913,-0.00000979,-0.00006393,0.0004618
 5,-0.00021427,0.00018856,-0.00100471,-0.00066539,-0.00015488,0.0013869
 7,0.00155256,0.00033479,-0.00071147,-0.00048521,-0.00000450,0.00017415
 ,0.00025506,-0.00001013,-0.00020217,-0.00005370,0.00000532,-0.00005125
 ,-0.00016333,-0.00000841,0.00033101,-0.00034000,-0.00006060,-0.0016744
 4,-0.00006476,0.00005875,-0.00011848,-0.00449131,-0.00079951,0.0001491
 2,-0.00142127,-0.00006721,0.00226908,-0.00377731,-0.00104677,0.0260332
 8,0.00824839,-0.00160897,-0.03591460,-0.06460617,0.00062095,-0.0300893
 7,0.00290573,0.00246810,0.00037244,-0.00008545,-0.00030503,-0.00025127
 ,-0.00003856,-0.00004429,-0.00003550,0.00002397,0.00002066,-0.00002610
 ,0.00001408,-0.00003790,0.00007064,-0.00031658,0.00038979,0.00000831,-
 0.00007504,0.00000096,0.00000282,-0.00000739,-0.00000160,0.00000444,-0
 .00006286,0.00000033,0.00000427,0.00002750,0.00000024,-0.00005255,0.00
 021816,0.00010634,0.00134190,0.00022348,-0.00007849,-0.00045930,0.0010
 3226,0.00040546,0.03740341,0.06227839,-0.00003860,-0.00009853,-0.00024
 953,-0.00036246,-0.00008305,0.00007745,-0.00002906,-0.00001312,0.00055
 731,0.00063712,0.00015270,-0.00060112,-0.00069496,0.00060684,-0.002141
 61,-0.00000527,0.00011860,-0.00027751,0.00000753,-0.00003616,0.0000415
 2,0.00002888,0.00001094,0.00005213,-0.00002205,0.00001159,0.00004880,-
 0.00000334,-0.00003720,0.00005790,-0.00008731,-0.00002595,0.00008274,0
 .00027051,-0.00073153,0.00542837,-0.00004021,-0.00005675,0.00010247,0.
 00062402,-0.00111658,0.00704573,0.00318940,0.00095310,0.00138629,0.022
 46698,0.00036556,-0.03466185,-0.00154809,-0.00041949,0.00291406,0.0000
 0667,0.00013696,-0.00004399,0.00026213,-0.00008574,-0.00001584,0.00001
 900,0.00000139,-0.00003048,-0.00004307,-0.00001543,0.00002634,-0.00000
 985,0.00052521,-0.00045710,-0.00000568,0.00000555,-0.00003741,-0.00000
 040,0.00000141,-0.00000565,-0.00000453,0.00000262,-0.00004720,-0.00000
 194,-0.00000148,0.00000828,-0.00008998,0.00014563,-0.00140501,0.000200
 61,-0.00001019,0.00057125,-0.00044891,0.00040121,-0.00418351,-0.024278
 35,-0.00064908,0.02578758,-0.00467372,0.00254323,0.00175486,-0.0004257
 1,0.00045367,0.00074937,-0.00033369,0.00170385,0.00190303,0.00959646,0
 .00431502,0.00935844,0.00143792,-0.00069650,0.00013722,-0.00028570,-0.
 00002474,0.00030453,-0.00012236,-0.00065440,0.00037329,-0.00014511,0.0
 0001488,0.00007455,0.00000010,-0.00004434,-0.00002009,-0.00000027,0.00
 000465,-0.00000569,-0.00001131,0.00003837,-0.00010897,0.00010476,-0.00
 002973,0.00002944,-0.00001720,0.00003635,0.00000217,0.00000301,-0.0000
 2914,-0.00000651,-0.00001200,-0.00001104,0.00000838,0.00002385,-0.0000
 3865,0.00001370,0.00002235,0.00027186,-0.00008393,-0.16978676,-0.05140
 946,-0.12958764,-0.01412016,-0.01077302,-0.02344100,-0.00080456,-0.000
 56565,-0.00118542,0.00006903,-0.00017838,-0.00005779,0.00050817,0.0003
 5331,0.00050862,-0.00027609,-0.00001166,0.00015479,0.00001624,0.000018
 68,0.00000215,0.00000064,0.00001186,-0.00001490,0.00001317,-0.00000129
 ,0.00002345,0.00000711,-0.00000226,0.00000230,0.00000157,-0.00000720,-
 0.00000185,-0.00000058,-0.00001089,-0.00000195,-0.00001373,-0.00001328
 ,-0.00000739,0.17817785,0.00205364,0.00547825,-0.00269765,0.00057777,-
 0.00042647,0.00002948,0.00250696,0.00272245,-0.00427747,-0.01160567,-0
 .00056576,-0.01130528,-0.00189655,-0.00274899,0.00331950,0.00055514,0.
 00094809,0.00022800,0.00000335,0.00001131,-0.00014268,-0.00020564,-0.0
 0014245,-0.00004221,0.00012453,-0.00018979,-0.00002343,0.00013220,0.00
 020480,0.00001049,-0.00021531,-0.00007095,-0.00014711,-0.00004121,-0.0
 0001385,-0.00005417,0.00005547,-0.00004641,-0.00001351,0.00000876,0.00
 004648,0.00000525,-0.00003546,-0.00003243,0.00000311,0.00002060,0.0000
 1579,0.00005297,0.00055461,-0.00027208,-0.00009527,-0.04993186,-0.0679
 9268,-0.07287609,0.00374259,0.00471082,0.00531565,0.00028342,0.0003499
 3,0.00015575,-0.00018665,-0.00078455,0.00048754,-0.00059076,0.00018696
 ,-0.00075878,-0.00024284,-0.00020223,0.00054668,-0.00002547,-0.0000174
 1,-0.00000426,0.00001625,-0.00000995,0.00001233,-0.00000396,-0.0000104
 8,0.00001337,-0.00000155,-0.00000531,-0.00000756,-0.00000148,-0.000001
 09,0.00000079,-0.00000051,0.00000127,-0.00000411,-0.00002460,0.0000138
 5,-0.00002536,0.05510958,0.06164900,0.00083104,-0.00263858,0.00256580,
 0.00081145,0.00020093,-0.00002957,0.00302169,-0.00426360,-0.00137501,-
 0.01835889,-0.00719363,-0.01390902,-0.00030802,0.00250041,0.00033430,0
 .00023712,-0.00061663,-0.00043122,0.00010433,-0.00021394,0.00031953,0.
 00022833,0.00027557,0.00013140,-0.00018184,0.00019474,-0.00001349,-0.0
 0015927,-0.00019905,0.00001160,0.00046336,-0.00002021,0.00003937,-0.00
 012580,0.00007828,-0.00002336,0.00006427,-0.00007260,-0.00001331,0.000
 06800,0.00006288,0.00000199,-0.00002644,0.00010040,0.00001353,-0.00011
 602,-0.00006731,0.00004073,0.00010315,-0.00010187,0.00006034,-0.127888
 74,-0.07215048,-0.20051920,0.00354570,0.00137956,0.00603469,0.00025708
 ,0.00000468,0.00021583,-0.00004555,0.00046750,-0.00023731,-0.00093468,
 -0.00059180,-0.00060434,-0.00015447,0.00047019,-0.00043468,-0.00000044
 ,-0.00002954,0.00001085,-0.00005061,0.00000752,-0.00001012,-0.00001486
 ,0.00001307,0.00000094,-0.00000255,-0.00000670,0.00000274,0.00000328,0
 .00001466,0.00000012,-0.00000171,0.00001727,-0.00000350,0.00003549,0.0
 0006435,-0.00003469,0.13860878,0.08027442,0.20815582,0.01165039,-0.010
 68535,-0.01687156,-0.00232444,-0.00069679,-0.00314520,-0.00107485,-0.0
 0020082,-0.00052100,-0.00441988,0.00071029,-0.00183842,-0.00103712,0.0
 0119852,0.00124981,0.00040166,0.00044155,-0.00004200,-0.00009545,-0.00
 009193,-0.00001291,0.00005743,-0.00000398,-0.00001606,-0.00005194,-0.0
 0000633,0.00000299,0.00001656,0.00000074,-0.00001346,-0.00013911,0.000
 08570,0.00004381,-0.00016988,0.00005653,-0.00002886,-0.00001759,-0.000
 01479,-0.00002683,-0.00004619,0.00001051,0.00000668,0.00005329,-0.0000
 2629,-0.00001881,-0.00001370,0.00010216,0.00000312,-0.00008451,-0.0006
 1520,0.00022292,-0.00686721,0.01579659,0.02691541,-0.09489235,0.050573
 62,0.07713653,0.00085858,-0.00013845,0.00067261,0.00047405,-0.00057482
 ,-0.00094791,0.00014709,-0.00005366,0.00013422,0.00001687,0.00001929,0
 .00003755,-0.00001110,-0.00002000,0.00000490,-0.00000489,-0.00000634,0
 .00000293,-0.00001057,-0.00000183,0.00000117,-0.00001624,0.00001153,0.
 00000162,-0.00000404,0.00000641,0.00000327,-0.00000049,0.00001320,0.00
 000248,0.00000681,-0.00000177,0.00000859,0.00104674,-0.00073534,-0.000
 01318,0.09655210,0.00448597,-0.00214664,-0.00758554,-0.00148209,0.0050
 9062,-0.00338599,-0.00024376,-0.00013771,0.00039720,0.00124112,0.00600
 494,-0.00226509,0.00019016,0.00002209,-0.00006139,-0.00008658,-0.00015
 847,0.00000472,-0.00006088,0.00003294,0.00002019,0.00000297,-0.0000028
 6,0.00003481,-0.00000063,0.00001106,-0.00000261,-0.00000709,-0.0000254
 7,0.00000524,0.00006480,-0.00002384,0.00000142,0.00004961,-0.00000856,
 -0.00001098,-0.00000086,-0.00000029,0.00000976,0.00002521,-0.00000729,
 -0.00000560,-0.00001650,0.00002266,0.00003760,-0.00001896,-0.00011320,
 0.00001903,-0.00008343,0.00022586,-0.00004897,0.00075194,0.00029929,-0
 .00380737,0.05099964,-0.10933335,-0.11935356,-0.00054352,-0.00265068,0
 .00202411,0.00028301,-0.00006079,-0.00046585,-0.00006475,-0.00082903,0
 .00042599,-0.00000285,0.00000620,-0.00002928,-0.00000261,0.00000070,0.
 00000048,0.00000392,0.00000255,-0.00000740,0.00000580,-0.00000083,-0.0
 0000345,0.00000468,-0.00000198,0.00000042,0.00000405,-0.00000284,-0.00
 000888,-0.00000126,-0.00000712,-0.00000222,0.00002955,0.00000338,-0.00
 003367,-0.00037370,-0.00280611,0.00203950,-0.05515293,0.10659479,0.010
 60719,-0.01030757,-0.01331185,-0.00421188,-0.00340211,-0.00033083,-0.0
 0059516,0.00044412,0.00027688,-0.00079737,-0.00230262,0.00328127,0.000
 31764,-0.00019100,-0.00007848,-0.00019659,-0.00019588,-0.00006099,0.00
 010693,0.00005340,-0.00002015,-0.00005088,-0.00001545,-0.00001748,0.00
 004210,-0.00000869,-0.00000181,-0.00000220,0.00002286,0.00000469,0.000
 04403,-0.00003294,-0.00001503,0.00005791,0.00001447,-0.00000652,0.0000
 0058,-0.00000157,-0.00000155,0.00002309,-0.00000282,0.00000107,-0.0000
 2310,0.00002163,-0.00001013,0.00000343,-0.00002251,-0.00000032,-0.0000
 3988,0.00025114,0.00003848,-0.00055473,-0.00055166,0.00143490,0.076938
 09,-0.11966497,-0.23202606,0.00006170,0.00203940,-0.00014785,0.0005431
 5,-0.00064831,-0.00074780,0.00015216,0.00043923,-0.00027088,-0.0000030
 9,-0.00004291,0.00001893,0.00000891,0.00001577,-0.00000230,0.00000590,
 0.00000411,0.00000473,0.00000708,0.00000049,0.00000184,0.00000854,-0.0
 0000279,-0.00000151,0.00000448,-0.00000548,0.00000159,-0.00000116,-0.0
 0000669,-0.00000173,-0.00001653,0.00002232,0.00000428,0.00051406,0.002
 01962,-0.00030075,-0.08295439,0.13205743,0.24228538\\-0.00001526,0.000
 00257,0.00000131,-0.00001799,0.00001379,0.00000755,0.00006125,-0.00002
 191,0.00000297,-0.00010890,0.00001852,0.00000942,0.00008358,-0.0000140
 0,-0.00000767,-0.00007984,0.00000096,0.00000706,0.00001632,-0.00000478
 ,0.00000988,-0.00002077,0.00000227,0.00000345,0.00002487,-0.00002102,-
 0.00001210,0.00000976,0.00002944,0.00003281,0.00003615,-0.00005392,-0.
 00003824,0.00005768,0.00003793,0.00003014,-0.00000602,-0.00003010,-0.0
 0003323,0.00003203,0.00001128,0.00000732,-0.00002060,0.00000479,0.0000
 0004,0.00001511,-0.00000073,-0.00001247,-0.00007561,0.00002546,0.00000
 686,0.00006386,0.00000061,-0.00001370,-0.00002250,-0.00000689,-0.00000
 416,0.00000328,-0.00000055,-0.00000028,-0.00000054,-0.00000144,-0.0000
 0054,-0.00001476,0.00000792,0.00000198,0.00000218,0.00000199,-0.000002
 95,-0.00000814,-0.00000225,-0.00000168,0.00000422,-0.00000563,0.000004
 16,-0.00000269,-0.00000243,-0.00000658,-0.00000062,0.00000297,0.000006
 88,0.00000511,0.00000404,-0.00000497,-0.00000654,0.00000476,0.00000289
 ,0.00000194,-0.00000269,0.00000259,-0.00001662,-0.00000247,0.00000067,
 0.00000008,0.00000152,0.00000057\\\@
 The archive entry for this job was punched.


 THE ONLY TROUBLE WITH A SURE THING IS THE UNCERTAINTY.
     -- FROM A TEABAG (BELONGING TO W.H.?)
 Job cpu time:       0 days  0 hours 36 minutes 59.5 seconds.
 Elapsed time:       0 days  0 hours  4 minutes 43.0 seconds.
 File lengths (MBytes):  RWF=    354 Int=      0 D2E=      0 Chk=     10 Scr=      1
 Normal termination of Gaussian 16 at Fri Jun  5 17:05:31 2026.
