 Entering Gaussian System, Link 0=/apl/gaussian/16c02/g16/._.g16
 Initial command:
 /apl/gaussian/16c02/g16/l1.exe "/lwork/users/sm2/679434.ccpbs1/gaussian/Gau-1000576.inp" -scrdir="/lwork/users/sm2/679434.ccpbs1/gaussian/"
 Default CPUs for threads: 104,105,106,107,108,109,110,111,112,113,114,115,116,11
 7,118,119
 Default is to use a total of  16 processors:
                               16 via shared-memory
                                1 via Linda
 Entering Link 1 = /apl/gaussian/16c02/g16/l1.exe PID=   1000577.
  
 Copyright (c) 1988-2021, Gaussian, Inc.  All Rights Reserved.
  
 This is part of the Gaussian(R) 16 program.  It is based on
 the Gaussian(R) 09 system (copyright 2009, Gaussian, Inc.),
 the Gaussian(R) 03 system (copyright 2003, Gaussian, Inc.),
 the Gaussian(R) 98 system (copyright 1998, Gaussian, Inc.),
 the Gaussian(R) 94 system (copyright 1995, Gaussian, Inc.),
 the Gaussian 92(TM) system (copyright 1992, Gaussian, Inc.),
 the Gaussian 90(TM) system (copyright 1990, Gaussian, Inc.),
 the Gaussian 88(TM) system (copyright 1988, Gaussian, Inc.),
 the Gaussian 86(TM) system (copyright 1986, Carnegie Mellon
 University), and the Gaussian 82(TM) system (copyright 1983,
 Carnegie Mellon University). Gaussian is a federally registered
 trademark of Gaussian, Inc.
  
 This software contains proprietary and confidential information,
 including trade secrets, belonging to Gaussian, Inc.
  
 This software is provided under written license and may be
 used, copied, transmitted, or stored only in accord with that
 written license.
  
 The following legend is applicable only to US Government
 contracts under FAR:
  
                    RESTRICTED RIGHTS LEGEND
  
 Use, reproduction and disclosure by the US Government is
 subject to restrictions as set forth in subparagraphs (a)
 and (c) of the Commercial Computer Software - Restricted
 Rights clause in FAR 52.227-19.
  
 Gaussian, Inc.
 340 Quinnipiac St., Bldg. 40, Wallingford CT 06492
  
  
 ---------------------------------------------------------------
 Warning -- This program may not be used in any manner that
 competes with the business of Gaussian, Inc. or will provide
 assistance to any competitor of Gaussian, Inc.  The licensee
 of this program is prohibited from giving any competitor of
 Gaussian, Inc. access to this program.  By using this program,
 the user acknowledges that Gaussian, Inc. is engaged in the
 business of creating and licensing software in the field of
 computational chemistry and represents and warrants to the
 licensee that it is not a competitor of Gaussian, Inc. and that
 it will not use this program in any manner prohibited above.
 ---------------------------------------------------------------
  

 Cite this work as:
 Gaussian 16, Revision C.02,
 M. J. Frisch, G. W. Trucks, H. B. Schlegel, G. E. Scuseria, 
 M. A. Robb, J. R. Cheeseman, G. Scalmani, V. Barone, 
 G. A. Petersson, H. Nakatsuji, X. Li, M. Caricato, A. V. Marenich, 
 J. Bloino, B. G. Janesko, R. Gomperts, B. Mennucci, H. P. Hratchian, 
 J. V. Ortiz, A. F. Izmaylov, J. L. Sonnenberg, D. Williams-Young, 
 F. Ding, F. Lipparini, F. Egidi, J. Goings, B. Peng, A. Petrone, 
 T. Henderson, D. Ranasinghe, V. G. Zakrzewski, J. Gao, N. Rega, 
 G. Zheng, W. Liang, M. Hada, M. Ehara, K. Toyota, R. Fukuda, 
 J. Hasegawa, M. Ishida, T. Nakajima, Y. Honda, O. Kitao, H. Nakai, 
 T. Vreven, K. Throssell, J. A. Montgomery, Jr., J. E. Peralta, 
 F. Ogliaro, M. J. Bearpark, J. J. Heyd, E. N. Brothers, K. N. Kudin, 
 V. N. Staroverov, T. A. Keith, R. Kobayashi, J. Normand, 
 K. Raghavachari, A. P. Rendell, J. C. Burant, S. S. Iyengar, 
 J. Tomasi, M. Cossi, J. M. Millam, M. Klene, C. Adamo, R. Cammi, 
 J. W. Ochterski, R. L. Martin, K. Morokuma, O. Farkas, 
 J. B. Foresman, and D. J. Fox, Gaussian, Inc., Wallingford CT, 2019.
 
 ******************************************
 Gaussian 16:  ES64L-G16RevC.02  7-Dec-2021
                 5-Jun-2026 
 ******************************************
 %chk=NPB.chk
 %mem=19200MB
 SetSPE:  set environment variable "OMP_PROC_BIND" = "true"
 SetSPE:  set environment variable "OMP_PLACES" = "{104},{105},{106},{107},{108},{109},{110},{111},{112},{113},{114},{115},{116},{117},{118},{119}"
 --------------------------
 #p B3LYP/6-31G(d) opt freq
 --------------------------
 1/18=20,19=15,26=3,38=1/1,3;
 2/9=110,12=2,17=6,18=5,40=1/2;
 3/5=1,6=6,7=1,11=2,25=1,30=1,71=1,74=-5/1,2,3;
 4//1;
 5/5=2,38=5/2;
 6/7=2,8=2,9=2,10=2,28=1/1;
 7//1,2,3,16;
 1/18=20,19=15,26=3/3(2);
 2/9=110/2;
 99//99;
 2/9=110/2;
 3/5=1,6=6,7=1,11=2,25=1,30=1,71=1,74=-5/1,2,3;
 4/5=5,16=3,69=1/1;
 5/5=2,38=5/2;
 7//1,2,3,16;
 1/18=20,19=15,26=3/3(-5);
 2/9=110/2;
 6/7=2,8=2,9=2,10=2,19=2,28=1/1;
 99/9=1/99;
 Leave Link    1 at Fri Jun  5 16:57:03 2026, MaxMem=  2516582400 cpu:               0.1 elap:               0.0
 (Enter /apl/gaussian/16c02/g16/l101.exe)
 ---------------------------------
 NPB - B3LYP/6-31G(d) optimization
 ---------------------------------
 Symbolic Z-matrix:
 Charge =  0 Multiplicity = 1
 C                     7.95671   2.85819  -2.77707 
 C                     8.19645   1.91084  -1.78516 
 C                     7.12827   1.22799  -1.19682 
 C                     5.80258   1.48025  -1.58807 
 C                     4.67791   0.76094  -0.96731 
 C                     3.59452   1.45477  -0.40817 
 C                     2.52419   0.77156   0.18201 
 C                     2.50092  -0.63102   0.23325 
 N                     1.39787  -1.33625   0.84059 
 C                     1.64803  -2.49961   1.65889 
 C                     0.8171   -3.63152   1.58173 
 C                     1.05941  -4.75717   2.37357 
 C                     2.13622  -4.77009   3.25677 
 C                     2.97149  -3.65947   3.34922 
 C                     2.72983  -2.5341    2.55678 
 C                     0.04515  -0.87895   0.63042 
 C                    -0.89066  -0.88055   1.677 
 C                    -2.20234  -0.43546   1.47352 
 C                    -2.62416   0.02482   0.21598 
 N                    -3.97663   0.48298   0.00604 
 C                    -4.63454   1.27921   1.01541 
 C                    -5.98844   1.07055   1.33329 
 C                    -6.62493   1.84013   2.31078 
 C                    -5.91887   2.83235   2.98658 
 C                    -4.57732   3.05617   2.68679 
 C                    -3.94052   2.28606   1.70991 
 C                    -4.67258   0.14549  -1.21355 
 C                    -5.48525   1.08833  -1.86795 
 C                    -6.15776   0.76231  -3.04875 
 C                    -6.03011  -0.51244  -3.59501 
 C                    -5.23089  -1.46171  -2.96268 
 C                    -4.55765  -1.13552  -1.78233 
 C                    -1.68861   0.02523  -0.83089 
 C                    -0.37643  -0.41816  -0.62703 
 C                     3.58509  -1.3256   -0.32569 
 C                     4.65446  -0.64069  -0.91569 
 C                     5.58363   2.44042  -2.59023 
 C                     6.65066   3.12342  -3.18044 
 H                     8.78683   3.38918  -3.23532 
 H                     9.21423   1.70319  -1.46548 
 H                     7.33753   0.50002  -0.41554 
 H                     3.58104   2.54295  -0.41298 
 H                     1.71454   1.3489    0.62229 
 H                    -0.01874  -3.6497    0.88633 
 H                     0.40771  -5.62348   2.29618 
 H                     2.32419  -5.64537   3.8731 
 H                     3.8101   -3.66437   4.04049 
 H                     3.38368  -1.67105   2.65817 
 H                    -0.60158  -1.21631   2.67025 
 H                    -2.89925  -0.4659    2.30793 
 H                    -6.5536    0.28931   0.83032 
 H                    -7.67081   1.65993   2.54486 
 H                    -6.41396   3.43093   3.74677 
 H                    -4.02428   3.83214   3.20944 
 H                    -2.8975    2.48962   1.4793 
 H                    -5.58482   2.09481  -1.46821 
 H                    -6.77739   1.50689  -3.5415 
 H                    -6.55327  -0.76601  -4.51332 
 H                    -5.13205  -2.45864  -3.38401 
 H                    -3.95321  -1.89735  -1.29574 
 H                    -1.97024   0.3867   -1.81724 
 H                     0.31238  -0.41419  -1.46863 
 H                     3.59673  -2.41314  -0.32569 
 H                     5.46743  -1.21763  -1.35219 
 H                     4.57191   2.655    -2.92875 
 H                     6.45962   3.85985  -3.95656 
 
 ITRead=  0  0  0  0  0  0  0  0  0  0  0  0  0  0  0  0  0  0  0  0
 ITRead=  0  0  0  0  0  0  0  0  0  0  0  0  0  0  0  0  0  0  0  0
 ITRead=  0  0  0  0  0  0  0  0  0  0  0  0  0  0  0  0  0  0  0  0
 ITRead=  0  0  0  0  0  0
 MicOpt= -1 -1 -1 -1 -1 -1 -1 -1 -1 -1 -1 -1 -1 -1 -1 -1 -1 -1 -1 -1
 MicOpt= -1 -1 -1 -1 -1 -1 -1 -1 -1 -1 -1 -1 -1 -1 -1 -1 -1 -1 -1 -1
 MicOpt= -1 -1 -1 -1 -1 -1 -1 -1 -1 -1 -1 -1 -1 -1 -1 -1 -1 -1 -1 -1
 MicOpt= -1 -1 -1 -1 -1 -1
 NAtoms=     66 NQM=       66 NQMF=       0 NMMI=      0 NMMIF=      0
                NMic=       0 NMicF=      0.
                    Isotopes and Nuclear Properties:
 (Nuclear quadrupole moments (NQMom) in fm**2, nuclear magnetic moments (NMagM)
  in nuclear magnetons)

  Atom         1           2           3           4           5           6           7           8           9          10
 IAtWgt=          12          12          12          12          12          12          12          12          14          12
 AtmWgt=  12.0000000  12.0000000  12.0000000  12.0000000  12.0000000  12.0000000  12.0000000  12.0000000  14.0030740  12.0000000
 NucSpn=           0           0           0           0           0           0           0           0           2           0
 AtZEff=  -0.0000000  -0.0000000  -0.0000000  -0.0000000  -0.0000000  -0.0000000  -0.0000000  -0.0000000  -0.0000000  -0.0000000
 NQMom=    0.0000000   0.0000000   0.0000000   0.0000000   0.0000000   0.0000000   0.0000000   0.0000000   2.0440000   0.0000000
 NMagM=    0.0000000   0.0000000   0.0000000   0.0000000   0.0000000   0.0000000   0.0000000   0.0000000   0.4037610   0.0000000
 AtZNuc=   6.0000000   6.0000000   6.0000000   6.0000000   6.0000000   6.0000000   6.0000000   6.0000000   7.0000000   6.0000000

  Atom        11          12          13          14          15          16          17          18          19          20
 IAtWgt=          12          12          12          12          12          12          12          12          12          14
 AtmWgt=  12.0000000  12.0000000  12.0000000  12.0000000  12.0000000  12.0000000  12.0000000  12.0000000  12.0000000  14.0030740
 NucSpn=           0           0           0           0           0           0           0           0           0           2
 AtZEff=  -0.0000000  -0.0000000  -0.0000000  -0.0000000  -0.0000000  -0.0000000  -0.0000000  -0.0000000  -0.0000000  -0.0000000
 NQMom=    0.0000000   0.0000000   0.0000000   0.0000000   0.0000000   0.0000000   0.0000000   0.0000000   0.0000000   2.0440000
 NMagM=    0.0000000   0.0000000   0.0000000   0.0000000   0.0000000   0.0000000   0.0000000   0.0000000   0.0000000   0.4037610
 AtZNuc=   6.0000000   6.0000000   6.0000000   6.0000000   6.0000000   6.0000000   6.0000000   6.0000000   6.0000000   7.0000000

  Atom        21          22          23          24          25          26          27          28          29          30
 IAtWgt=          12          12          12          12          12          12          12          12          12          12
 AtmWgt=  12.0000000  12.0000000  12.0000000  12.0000000  12.0000000  12.0000000  12.0000000  12.0000000  12.0000000  12.0000000
 NucSpn=           0           0           0           0           0           0           0           0           0           0
 AtZEff=  -0.0000000  -0.0000000  -0.0000000  -0.0000000  -0.0000000  -0.0000000  -0.0000000  -0.0000000  -0.0000000  -0.0000000
 NQMom=    0.0000000   0.0000000   0.0000000   0.0000000   0.0000000   0.0000000   0.0000000   0.0000000   0.0000000   0.0000000
 NMagM=    0.0000000   0.0000000   0.0000000   0.0000000   0.0000000   0.0000000   0.0000000   0.0000000   0.0000000   0.0000000
 AtZNuc=   6.0000000   6.0000000   6.0000000   6.0000000   6.0000000   6.0000000   6.0000000   6.0000000   6.0000000   6.0000000

  Atom        31          32          33          34          35          36          37          38          39          40
 IAtWgt=          12          12          12          12          12          12          12          12           1           1
 AtmWgt=  12.0000000  12.0000000  12.0000000  12.0000000  12.0000000  12.0000000  12.0000000  12.0000000   1.0078250   1.0078250
 NucSpn=           0           0           0           0           0           0           0           0           1           1
 AtZEff=  -0.0000000  -0.0000000  -0.0000000  -0.0000000  -0.0000000  -0.0000000  -0.0000000  -0.0000000  -0.0000000  -0.0000000
 NQMom=    0.0000000   0.0000000   0.0000000   0.0000000   0.0000000   0.0000000   0.0000000   0.0000000   0.0000000   0.0000000
 NMagM=    0.0000000   0.0000000   0.0000000   0.0000000   0.0000000   0.0000000   0.0000000   0.0000000   2.7928460   2.7928460
 AtZNuc=   6.0000000   6.0000000   6.0000000   6.0000000   6.0000000   6.0000000   6.0000000   6.0000000   1.0000000   1.0000000

  Atom        41          42          43          44          45          46          47          48          49          50
 IAtWgt=           1           1           1           1           1           1           1           1           1           1
 AtmWgt=   1.0078250   1.0078250   1.0078250   1.0078250   1.0078250   1.0078250   1.0078250   1.0078250   1.0078250   1.0078250
 NucSpn=           1           1           1           1           1           1           1           1           1           1
 AtZEff=  -0.0000000  -0.0000000  -0.0000000  -0.0000000  -0.0000000  -0.0000000  -0.0000000  -0.0000000  -0.0000000  -0.0000000
 NQMom=    0.0000000   0.0000000   0.0000000   0.0000000   0.0000000   0.0000000   0.0000000   0.0000000   0.0000000   0.0000000
 NMagM=    2.7928460   2.7928460   2.7928460   2.7928460   2.7928460   2.7928460   2.7928460   2.7928460   2.7928460   2.7928460
 AtZNuc=   1.0000000   1.0000000   1.0000000   1.0000000   1.0000000   1.0000000   1.0000000   1.0000000   1.0000000   1.0000000

  Atom        51          52          53          54          55          56          57          58          59          60
 IAtWgt=           1           1           1           1           1           1           1           1           1           1
 AtmWgt=   1.0078250   1.0078250   1.0078250   1.0078250   1.0078250   1.0078250   1.0078250   1.0078250   1.0078250   1.0078250
 NucSpn=           1           1           1           1           1           1           1           1           1           1
 AtZEff=  -0.0000000  -0.0000000  -0.0000000  -0.0000000  -0.0000000  -0.0000000  -0.0000000  -0.0000000  -0.0000000  -0.0000000
 NQMom=    0.0000000   0.0000000   0.0000000   0.0000000   0.0000000   0.0000000   0.0000000   0.0000000   0.0000000   0.0000000
 NMagM=    2.7928460   2.7928460   2.7928460   2.7928460   2.7928460   2.7928460   2.7928460   2.7928460   2.7928460   2.7928460
 AtZNuc=   1.0000000   1.0000000   1.0000000   1.0000000   1.0000000   1.0000000   1.0000000   1.0000000   1.0000000   1.0000000

  Atom        61          62          63          64          65          66
 IAtWgt=           1           1           1           1           1           1
 AtmWgt=   1.0078250   1.0078250   1.0078250   1.0078250   1.0078250   1.0078250
 NucSpn=           1           1           1           1           1           1
 AtZEff=  -0.0000000  -0.0000000  -0.0000000  -0.0000000  -0.0000000  -0.0000000
 NQMom=    0.0000000   0.0000000   0.0000000   0.0000000   0.0000000   0.0000000
 NMagM=    2.7928460   2.7928460   2.7928460   2.7928460   2.7928460   2.7928460
 AtZNuc=   1.0000000   1.0000000   1.0000000   1.0000000   1.0000000   1.0000000
 Leave Link  101 at Fri Jun  5 16:57:03 2026, MaxMem=  2516582400 cpu:               0.2 elap:               0.1
 (Enter /apl/gaussian/16c02/g16/l103.exe)

 GradGradGradGradGradGradGradGradGradGradGradGradGradGradGradGradGradGrad
 Berny optimization.
 Initialization pass.
                           ----------------------------
                           !    Initial Parameters    !
                           ! (Angstroms and Degrees)  !
 --------------------------                            --------------------------
 ! Name  Definition              Value          Derivative Info.                !
 --------------------------------------------------------------------------------
 ! R1    R(1,2)                  1.3924         estimate D2E/DX2                !
 ! R2    R(1,38)                 1.3924         estimate D2E/DX2                !
 ! R3    R(1,39)                 1.0868         estimate D2E/DX2                !
 ! R4    R(2,3)                  1.3977         estimate D2E/DX2                !
 ! R5    R(2,40)                 1.0868         estimate D2E/DX2                !
 ! R6    R(3,4)                  1.405          estimate D2E/DX2                !
 ! R7    R(3,41)                 1.0882         estimate D2E/DX2                !
 ! R8    R(4,5)                  1.4723         estimate D2E/DX2                !
 ! R9    R(4,37)                 1.4051         estimate D2E/DX2                !
 ! R10   R(5,6)                  1.4028         estimate D2E/DX2                !
 ! R11   R(5,36)                 1.4028         estimate D2E/DX2                !
 ! R12   R(6,7)                  1.4002         estimate D2E/DX2                !
 ! R13   R(6,42)                 1.0883         estimate D2E/DX2                !
 ! R14   R(7,8)                  1.4037         estimate D2E/DX2                !
 ! R15   R(7,43)                 1.0875         estimate D2E/DX2                !
 ! R16   R(8,9)                  1.4432         estimate D2E/DX2                !
 ! R17   R(8,35)                 1.4037         estimate D2E/DX2                !
 ! R18   R(9,10)                 1.4442         estimate D2E/DX2                !
 ! R19   R(9,16)                 1.4433         estimate D2E/DX2                !
 ! R20   R(10,11)                1.4063         estimate D2E/DX2                !
 ! R21   R(10,15)                1.4063         estimate D2E/DX2                !
 ! R22   R(11,12)                1.3974         estimate D2E/DX2                !
 ! R23   R(11,44)                1.0874         estimate D2E/DX2                !
 ! R24   R(12,13)                1.3927         estimate D2E/DX2                !
 ! R25   R(12,45)                1.0868         estimate D2E/DX2                !
 ! R26   R(13,14)                1.3927         estimate D2E/DX2                !
 ! R27   R(13,46)                1.0869         estimate D2E/DX2                !
 ! R28   R(14,15)                1.3974         estimate D2E/DX2                !
 ! R29   R(14,47)                1.0868         estimate D2E/DX2                !
 ! R30   R(15,48)                1.0875         estimate D2E/DX2                !
 ! R31   R(16,17)                1.4039         estimate D2E/DX2                !
 ! R32   R(16,34)                1.404          estimate D2E/DX2                !
 ! R33   R(17,18)                1.4            estimate D2E/DX2                !
 ! R34   R(17,49)                1.0876         estimate D2E/DX2                !
 ! R35   R(18,19)                1.404          estimate D2E/DX2                !
 ! R36   R(18,50)                1.0876         estimate D2E/DX2                !
 ! R37   R(19,20)                1.4433         estimate D2E/DX2                !
 ! R38   R(19,33)                1.404          estimate D2E/DX2                !
 ! R39   R(20,21)                1.4442         estimate D2E/DX2                !
 ! R40   R(20,27)                1.4442         estimate D2E/DX2                !
 ! R41   R(21,22)                1.4063         estimate D2E/DX2                !
 ! R42   R(21,26)                1.4063         estimate D2E/DX2                !
 ! R43   R(22,23)                1.3974         estimate D2E/DX2                !
 ! R44   R(22,51)                1.0875         estimate D2E/DX2                !
 ! R45   R(23,24)                1.3927         estimate D2E/DX2                !
 ! R46   R(23,52)                1.0868         estimate D2E/DX2                !
 ! R47   R(24,25)                1.3927         estimate D2E/DX2                !
 ! R48   R(24,53)                1.0869         estimate D2E/DX2                !
 ! R49   R(25,26)                1.3975         estimate D2E/DX2                !
 ! R50   R(25,54)                1.0868         estimate D2E/DX2                !
 ! R51   R(26,55)                1.0874         estimate D2E/DX2                !
 ! R52   R(27,28)                1.4063         estimate D2E/DX2                !
 ! R53   R(27,32)                1.4063         estimate D2E/DX2                !
 ! R54   R(28,29)                1.3974         estimate D2E/DX2                !
 ! R55   R(28,56)                1.0875         estimate D2E/DX2                !
 ! R56   R(29,30)                1.3927         estimate D2E/DX2                !
 ! R57   R(29,57)                1.0868         estimate D2E/DX2                !
 ! R58   R(30,31)                1.3927         estimate D2E/DX2                !
 ! R59   R(30,58)                1.0869         estimate D2E/DX2                !
 ! R60   R(31,32)                1.3974         estimate D2E/DX2                !
 ! R61   R(31,59)                1.0868         estimate D2E/DX2                !
 ! R62   R(32,60)                1.0874         estimate D2E/DX2                !
 ! R63   R(33,34)                1.4            estimate D2E/DX2                !
 ! R64   R(33,61)                1.0876         estimate D2E/DX2                !
 ! R65   R(34,62)                1.0875         estimate D2E/DX2                !
 ! R66   R(35,36)                1.4003         estimate D2E/DX2                !
 ! R67   R(35,63)                1.0876         estimate D2E/DX2                !
 ! R68   R(36,64)                1.0883         estimate D2E/DX2                !
 ! R69   R(37,38)                1.3976         estimate D2E/DX2                !
 ! R70   R(37,65)                1.0882         estimate D2E/DX2                !
 ! R71   R(38,66)                1.0868         estimate D2E/DX2                !
 ! A1    A(2,1,38)             119.832          estimate D2E/DX2                !
 ! A2    A(2,1,39)             120.0855         estimate D2E/DX2                !
 ! A3    A(38,1,39)            120.0825         estimate D2E/DX2                !
 ! A4    A(1,2,3)              120.045          estimate D2E/DX2                !
 ! A5    A(1,2,40)             120.0505         estimate D2E/DX2                !
 ! A6    A(3,2,40)             119.9043         estimate D2E/DX2                !
 ! A7    A(2,3,4)              121.0757         estimate D2E/DX2                !
 ! A8    A(2,3,41)             118.8223         estimate D2E/DX2                !
 ! A9    A(4,3,41)             120.0977         estimate D2E/DX2                !
 ! A10   A(3,4,5)              121.0392         estimate D2E/DX2                !
 ! A11   A(3,4,37)             117.926          estimate D2E/DX2                !
 ! A12   A(5,4,37)             121.0348         estimate D2E/DX2                !
 ! A13   A(4,5,6)              121.0892         estimate D2E/DX2                !
 ! A14   A(4,5,36)             121.0949         estimate D2E/DX2                !
 ! A15   A(6,5,36)             117.8158         estimate D2E/DX2                !
 ! A16   A(5,6,7)              121.1322         estimate D2E/DX2                !
 ! A17   A(5,6,42)             120.1576         estimate D2E/DX2                !
 ! A18   A(7,6,42)             118.7033         estimate D2E/DX2                !
 ! A19   A(6,7,8)              121.0369         estimate D2E/DX2                !
 ! A20   A(6,7,43)             118.7303         estimate D2E/DX2                !
 ! A21   A(8,7,43)             120.2204         estimate D2E/DX2                !
 ! A22   A(7,8,9)              121.0836         estimate D2E/DX2                !
 ! A23   A(7,8,35)             117.8455         estimate D2E/DX2                !
 ! A24   A(9,8,35)             121.0709         estimate D2E/DX2                !
 ! A25   A(8,9,10)             119.9794         estimate D2E/DX2                !
 ! A26   A(8,9,16)             120.0143         estimate D2E/DX2                !
 ! A27   A(10,9,16)            120.0063         estimate D2E/DX2                !
 ! A28   A(9,10,11)            120.9941         estimate D2E/DX2                !
 ! A29   A(9,10,15)            120.9833         estimate D2E/DX2                !
 ! A30   A(11,10,15)           118.0226         estimate D2E/DX2                !
 ! A31   A(10,11,12)           120.9849         estimate D2E/DX2                !
 ! A32   A(10,11,44)           120.1787         estimate D2E/DX2                !
 ! A33   A(12,11,44)           118.8271         estimate D2E/DX2                !
 ! A34   A(11,12,13)           120.0571         estimate D2E/DX2                !
 ! A35   A(11,12,45)           119.8514         estimate D2E/DX2                !
 ! A36   A(13,12,45)           120.0913         estimate D2E/DX2                !
 ! A37   A(12,13,14)           119.8937         estimate D2E/DX2                !
 ! A38   A(12,13,46)           120.0515         estimate D2E/DX2                !
 ! A39   A(14,13,46)           120.0548         estimate D2E/DX2                !
 ! A40   A(13,14,15)           120.0553         estimate D2E/DX2                !
 ! A41   A(13,14,47)           120.0925         estimate D2E/DX2                !
 ! A42   A(15,14,47)           119.8517         estimate D2E/DX2                !
 ! A43   A(10,15,14)           120.9864         estimate D2E/DX2                !
 ! A44   A(10,15,48)           120.17           estimate D2E/DX2                !
 ! A45   A(14,15,48)           118.8335         estimate D2E/DX2                !
 ! A46   A(9,16,17)            121.0513         estimate D2E/DX2                !
 ! A47   A(9,16,34)            121.0524         estimate D2E/DX2                !
 ! A48   A(17,16,34)           117.8963         estimate D2E/DX2                !
 ! A49   A(16,17,18)           121.0504         estimate D2E/DX2                !
 ! A50   A(16,17,49)           120.2634         estimate D2E/DX2                !
 ! A51   A(18,17,49)           118.6799         estimate D2E/DX2                !
 ! A52   A(17,18,19)           121.0575         estimate D2E/DX2                !
 ! A53   A(17,18,50)           118.6822         estimate D2E/DX2                !
 ! A54   A(19,18,50)           120.2542         estimate D2E/DX2                !
 ! A55   A(18,19,20)           121.0567         estimate D2E/DX2                !
 ! A56   A(18,19,33)           117.8889         estimate D2E/DX2                !
 ! A57   A(20,19,33)           121.0545         estimate D2E/DX2                !
 ! A58   A(19,20,21)           120.0157         estimate D2E/DX2                !
 ! A59   A(19,20,27)           120.0151         estimate D2E/DX2                !
 ! A60   A(21,20,27)           119.9691         estimate D2E/DX2                !
 ! A61   A(20,21,22)           120.9825         estimate D2E/DX2                !
 ! A62   A(20,21,26)           121.0014         estimate D2E/DX2                !
 ! A63   A(22,21,26)           118.0161         estimate D2E/DX2                !
 ! A64   A(21,22,23)           120.9908         estimate D2E/DX2                !
 ! A65   A(21,22,51)           120.156          estimate D2E/DX2                !
 ! A66   A(23,22,51)           118.8435         estimate D2E/DX2                !
 ! A67   A(22,23,24)           120.0558         estimate D2E/DX2                !
 ! A68   A(22,23,52)           119.8451         estimate D2E/DX2                !
 ! A69   A(24,23,52)           120.0987         estimate D2E/DX2                !
 ! A70   A(23,24,25)           119.8919         estimate D2E/DX2                !
 ! A71   A(23,24,53)           120.0541         estimate D2E/DX2                !
 ! A72   A(25,24,53)           120.054          estimate D2E/DX2                !
 ! A73   A(24,25,26)           120.0562         estimate D2E/DX2                !
 ! A74   A(24,25,54)           120.0921         estimate D2E/DX2                !
 ! A75   A(26,25,54)           119.8513         estimate D2E/DX2                !
 ! A76   A(21,26,25)           120.9891         estimate D2E/DX2                !
 ! A77   A(21,26,55)           120.1749         estimate D2E/DX2                !
 ! A78   A(25,26,55)           118.8266         estimate D2E/DX2                !
 ! A79   A(20,27,28)           120.9832         estimate D2E/DX2                !
 ! A80   A(20,27,32)           121.0            estimate D2E/DX2                !
 ! A81   A(28,27,32)           118.0168         estimate D2E/DX2                !
 ! A82   A(27,28,29)           120.9904         estimate D2E/DX2                !
 ! A83   A(27,28,56)           120.1557         estimate D2E/DX2                !
 ! A84   A(29,28,56)           118.8444         estimate D2E/DX2                !
 ! A85   A(28,29,30)           120.0559         estimate D2E/DX2                !
 ! A86   A(28,29,57)           119.8447         estimate D2E/DX2                !
 ! A87   A(30,29,57)           120.0991         estimate D2E/DX2                !
 ! A88   A(29,30,31)           119.8921         estimate D2E/DX2                !
 ! A89   A(29,30,58)           120.0539         estimate D2E/DX2                !
 ! A90   A(31,30,58)           120.054          estimate D2E/DX2                !
 ! A91   A(30,31,32)           120.056          estimate D2E/DX2                !
 ! A92   A(30,31,59)           120.0921         estimate D2E/DX2                !
 ! A93   A(32,31,59)           119.8516         estimate D2E/DX2                !
 ! A94   A(27,32,31)           120.9889         estimate D2E/DX2                !
 ! A95   A(27,32,60)           120.1723         estimate D2E/DX2                !
 ! A96   A(31,32,60)           118.8294         estimate D2E/DX2                !
 ! A97   A(19,33,34)           121.0564         estimate D2E/DX2                !
 ! A98   A(19,33,61)           120.2506         estimate D2E/DX2                !
 ! A99   A(34,33,61)           118.6869         estimate D2E/DX2                !
 ! A100  A(16,34,33)           121.0505         estimate D2E/DX2                !
 ! A101  A(16,34,62)           120.2712         estimate D2E/DX2                !
 ! A102  A(33,34,62)           118.6718         estimate D2E/DX2                !
 ! A103  A(8,35,36)            121.0381         estimate D2E/DX2                !
 ! A104  A(8,35,63)            120.2031         estimate D2E/DX2                !
 ! A105  A(36,35,63)           118.746          estimate D2E/DX2                !
 ! A106  A(5,36,35)            121.1315         estimate D2E/DX2                !
 ! A107  A(5,36,64)            120.1633         estimate D2E/DX2                !
 ! A108  A(35,36,64)           118.6979         estimate D2E/DX2                !
 ! A109  A(4,37,38)            121.0761         estimate D2E/DX2                !
 ! A110  A(4,37,65)            120.0998         estimate D2E/DX2                !
 ! A111  A(38,37,65)           118.8198         estimate D2E/DX2                !
 ! A112  A(1,38,37)            120.0451         estimate D2E/DX2                !
 ! A113  A(1,38,66)            120.0542         estimate D2E/DX2                !
 ! A114  A(37,38,66)           119.9005         estimate D2E/DX2                !
 ! D1    D(38,1,2,3)             0.0253         estimate D2E/DX2                !
 ! D2    D(38,1,2,40)         -179.8146         estimate D2E/DX2                !
 ! D3    D(39,1,2,3)          -179.9707         estimate D2E/DX2                !
 ! D4    D(39,1,2,40)            0.1894         estimate D2E/DX2                !
 ! D5    D(2,1,38,37)            0.0275         estimate D2E/DX2                !
 ! D6    D(2,1,38,66)         -179.8058         estimate D2E/DX2                !
 ! D7    D(39,1,38,37)        -179.9765         estimate D2E/DX2                !
 ! D8    D(39,1,38,66)           0.1902         estimate D2E/DX2                !
 ! D9    D(1,2,3,4)             -0.0545         estimate D2E/DX2                !
 ! D10   D(1,2,3,41)          -179.3074         estimate D2E/DX2                !
 ! D11   D(40,2,3,4)           179.7857         estimate D2E/DX2                !
 ! D12   D(40,2,3,41)            0.5327         estimate D2E/DX2                !
 ! D13   D(2,3,4,5)           -179.9701         estimate D2E/DX2                !
 ! D14   D(2,3,4,37)             0.0296         estimate D2E/DX2                !
 ! D15   D(41,3,4,5)            -0.7266         estimate D2E/DX2                !
 ! D16   D(41,3,4,37)          179.2731         estimate D2E/DX2                !
 ! D17   D(3,4,5,6)            126.8701         estimate D2E/DX2                !
 ! D18   D(3,4,5,36)           -53.1357         estimate D2E/DX2                !
 ! D19   D(37,4,5,6)           -53.1296         estimate D2E/DX2                !
 ! D20   D(37,4,5,36)          126.8647         estimate D2E/DX2                !
 ! D21   D(3,4,37,38)            0.0238         estimate D2E/DX2                !
 ! D22   D(3,4,37,65)          179.2603         estimate D2E/DX2                !
 ! D23   D(5,4,37,38)         -179.9765         estimate D2E/DX2                !
 ! D24   D(5,4,37,65)           -0.74           estimate D2E/DX2                !
 ! D25   D(4,5,6,7)            179.9767         estimate D2E/DX2                !
 ! D26   D(4,5,6,42)            -0.9907         estimate D2E/DX2                !
 ! D27   D(36,5,6,7)            -0.0177         estimate D2E/DX2                !
 ! D28   D(36,5,6,42)          179.0148         estimate D2E/DX2                !
 ! D29   D(4,5,36,35)         -179.9891         estimate D2E/DX2                !
 ! D30   D(4,5,36,64)           -0.9875         estimate D2E/DX2                !
 ! D31   D(6,5,36,35)            0.0054         estimate D2E/DX2                !
 ! D32   D(6,5,36,64)          179.0069         estimate D2E/DX2                !
 ! D33   D(5,6,7,8)              0.005          estimate D2E/DX2                !
 ! D34   D(5,6,7,43)           178.7263         estimate D2E/DX2                !
 ! D35   D(42,6,7,8)          -179.0413         estimate D2E/DX2                !
 ! D36   D(42,6,7,43)           -0.3201         estimate D2E/DX2                !
 ! D37   D(6,7,8,9)           -179.9629         estimate D2E/DX2                !
 ! D38   D(6,7,8,35)             0.0199         estimate D2E/DX2                !
 ! D39   D(43,7,8,9)             1.3348         estimate D2E/DX2                !
 ! D40   D(43,7,8,35)         -178.6824         estimate D2E/DX2                !
 ! D41   D(7,8,9,10)          -139.5773         estimate D2E/DX2                !
 ! D42   D(7,8,9,16)            40.4138         estimate D2E/DX2                !
 ! D43   D(35,8,9,10)           40.4405         estimate D2E/DX2                !
 ! D44   D(35,8,9,16)         -139.5684         estimate D2E/DX2                !
 ! D45   D(7,8,35,36)           -0.0323         estimate D2E/DX2                !
 ! D46   D(7,8,35,63)         -178.7147         estimate D2E/DX2                !
 ! D47   D(9,8,35,36)          179.9505         estimate D2E/DX2                !
 ! D48   D(9,8,35,63)            1.2681         estimate D2E/DX2                !
 ! D49   D(8,9,10,11)         -139.486          estimate D2E/DX2                !
 ! D50   D(8,9,10,15)           40.5227         estimate D2E/DX2                !
 ! D51   D(16,9,10,11)          40.523          estimate D2E/DX2                !
 ! D52   D(16,9,10,15)        -139.4684         estimate D2E/DX2                !
 ! D53   D(8,9,16,17)         -139.6902         estimate D2E/DX2                !
 ! D54   D(8,9,16,34)           40.2955         estimate D2E/DX2                !
 ! D55   D(10,9,16,17)          40.3008         estimate D2E/DX2                !
 ! D56   D(10,9,16,34)        -139.7135         estimate D2E/DX2                !
 ! D57   D(9,10,11,12)         179.9947         estimate D2E/DX2                !
 ! D58   D(9,10,11,44)           1.1182         estimate D2E/DX2                !
 ! D59   D(15,10,11,12)         -0.0137         estimate D2E/DX2                !
 ! D60   D(15,10,11,44)       -178.8902         estimate D2E/DX2                !
 ! D61   D(9,10,15,14)         179.961          estimate D2E/DX2                !
 ! D62   D(9,10,15,48)           1.1317         estimate D2E/DX2                !
 ! D63   D(11,10,15,14)         -0.0306         estimate D2E/DX2                !
 ! D64   D(11,10,15,48)       -178.8599         estimate D2E/DX2                !
 ! D65   D(10,11,12,13)          0.0402         estimate D2E/DX2                !
 ! D66   D(10,11,12,45)       -179.7582         estimate D2E/DX2                !
 ! D67   D(44,11,12,13)        178.9316         estimate D2E/DX2                !
 ! D68   D(44,11,12,45)         -0.8668         estimate D2E/DX2                !
 ! D69   D(11,12,13,14)         -0.0222         estimate D2E/DX2                !
 ! D70   D(11,12,13,46)        179.9574         estimate D2E/DX2                !
 ! D71   D(45,12,13,14)        179.7756         estimate D2E/DX2                !
 ! D72   D(45,12,13,46)         -0.2448         estimate D2E/DX2                !
 ! D73   D(12,13,14,15)         -0.0216         estimate D2E/DX2                !
 ! D74   D(12,13,14,47)        179.7302         estimate D2E/DX2                !
 ! D75   D(46,13,14,15)        179.9988         estimate D2E/DX2                !
 ! D76   D(46,13,14,47)         -0.2494         estimate D2E/DX2                !
 ! D77   D(13,14,15,10)          0.0485         estimate D2E/DX2                !
 ! D78   D(13,14,15,48)        178.8932         estimate D2E/DX2                !
 ! D79   D(47,14,15,10)       -179.7039         estimate D2E/DX2                !
 ! D80   D(47,14,15,48)         -0.8592         estimate D2E/DX2                !
 ! D81   D(9,16,17,18)         179.9226         estimate D2E/DX2                !
 ! D82   D(9,16,17,49)           0.8458         estimate D2E/DX2                !
 ! D83   D(34,16,17,18)         -0.0636         estimate D2E/DX2                !
 ! D84   D(34,16,17,49)       -179.1403         estimate D2E/DX2                !
 ! D85   D(9,16,34,33)         179.991          estimate D2E/DX2                !
 ! D86   D(9,16,34,62)           0.9335         estimate D2E/DX2                !
 ! D87   D(17,16,34,33)         -0.0229         estimate D2E/DX2                !
 ! D88   D(17,16,34,62)       -179.0804         estimate D2E/DX2                !
 ! D89   D(16,17,18,19)          0.0925         estimate D2E/DX2                !
 ! D90   D(16,17,18,50)        179.1904         estimate D2E/DX2                !
 ! D91   D(49,17,18,19)        179.1836         estimate D2E/DX2                !
 ! D92   D(49,17,18,50)         -1.7185         estimate D2E/DX2                !
 ! D93   D(17,18,19,20)        179.9655         estimate D2E/DX2                !
 ! D94   D(17,18,19,33)         -0.0323         estimate D2E/DX2                !
 ! D95   D(50,18,19,20)          0.8817         estimate D2E/DX2                !
 ! D96   D(50,18,19,33)       -179.1161         estimate D2E/DX2                !
 ! D97   D(18,19,20,21)         40.2113         estimate D2E/DX2                !
 ! D98   D(18,19,20,27)       -139.7935         estimate D2E/DX2                !
 ! D99   D(33,19,20,21)       -139.7909         estimate D2E/DX2                !
 ! D100  D(33,19,20,27)         40.2042         estimate D2E/DX2                !
 ! D101  D(18,19,33,34)         -0.0542         estimate D2E/DX2                !
 ! D102  D(18,19,33,61)       -179.1452         estimate D2E/DX2                !
 ! D103  D(20,19,33,34)        179.948          estimate D2E/DX2                !
 ! D104  D(20,19,33,61)          0.857          estimate D2E/DX2                !
 ! D105  D(19,20,21,22)       -139.5214         estimate D2E/DX2                !
 ! D106  D(19,20,21,26)         40.4664         estimate D2E/DX2                !
 ! D107  D(27,20,21,22)         40.4834         estimate D2E/DX2                !
 ! D108  D(27,20,21,26)       -139.5288         estimate D2E/DX2                !
 ! D109  D(19,20,27,28)       -139.5038         estimate D2E/DX2                !
 ! D110  D(19,20,27,32)         40.4815         estimate D2E/DX2                !
 ! D111  D(21,20,27,28)         40.4913         estimate D2E/DX2                !
 ! D112  D(21,20,27,32)       -139.5234         estimate D2E/DX2                !
 ! D113  D(20,21,22,23)        179.9438         estimate D2E/DX2                !
 ! D114  D(20,21,22,51)          1.0825         estimate D2E/DX2                !
 ! D115  D(26,21,22,23)         -0.0443         estimate D2E/DX2                !
 ! D116  D(26,21,22,51)       -178.9056         estimate D2E/DX2                !
 ! D117  D(20,21,26,25)       -179.9856         estimate D2E/DX2                !
 ! D118  D(20,21,26,55)          1.1399         estimate D2E/DX2                !
 ! D119  D(22,21,26,25)          0.0025         estimate D2E/DX2                !
 ! D120  D(22,21,26,55)       -178.872          estimate D2E/DX2                !
 ! D121  D(21,22,23,24)          0.0504         estimate D2E/DX2                !
 ! D122  D(21,22,23,52)       -179.7172         estimate D2E/DX2                !
 ! D123  D(51,22,23,24)        178.9263         estimate D2E/DX2                !
 ! D124  D(51,22,23,52)         -0.8413         estimate D2E/DX2                !
 ! D125  D(22,23,24,25)         -0.0136         estimate D2E/DX2                !
 ! D126  D(22,23,24,53)        179.9946         estimate D2E/DX2                !
 ! D127  D(52,23,24,25)        179.7534         estimate D2E/DX2                !
 ! D128  D(52,23,24,53)         -0.2385         estimate D2E/DX2                !
 ! D129  D(23,24,25,26)         -0.0278         estimate D2E/DX2                !
 ! D130  D(23,24,25,54)        179.7651         estimate D2E/DX2                !
 ! D131  D(53,24,25,26)        179.964          estimate D2E/DX2                !
 ! D132  D(53,24,25,54)         -0.2431         estimate D2E/DX2                !
 ! D133  D(24,25,26,21)          0.0334         estimate D2E/DX2                !
 ! D134  D(24,25,26,55)        178.9228         estimate D2E/DX2                !
 ! D135  D(54,25,26,21)       -179.76           estimate D2E/DX2                !
 ! D136  D(54,25,26,55)         -0.8706         estimate D2E/DX2                !
 ! D137  D(20,27,28,29)        179.9398         estimate D2E/DX2                !
 ! D138  D(20,27,28,56)          1.0757         estimate D2E/DX2                !
 ! D139  D(32,27,28,29)         -0.046          estimate D2E/DX2                !
 ! D140  D(32,27,28,56)       -178.91           estimate D2E/DX2                !
 ! D141  D(20,27,32,31)       -179.9816         estimate D2E/DX2                !
 ! D142  D(20,27,32,60)          1.1469         estimate D2E/DX2                !
 ! D143  D(28,27,32,31)          0.0041         estimate D2E/DX2                !
 ! D144  D(28,27,32,60)       -178.8674         estimate D2E/DX2                !
 ! D145  D(27,28,29,30)          0.0508         estimate D2E/DX2                !
 ! D146  D(27,28,29,57)       -179.7197         estimate D2E/DX2                !
 ! D147  D(56,28,29,30)        178.9295         estimate D2E/DX2                !
 ! D148  D(56,28,29,57)         -0.841          estimate D2E/DX2                !
 ! D149  D(28,29,30,31)         -0.0127         estimate D2E/DX2                !
 ! D150  D(28,29,30,58)        179.9923         estimate D2E/DX2                !
 ! D151  D(57,29,30,31)        179.7572         estimate D2E/DX2                !
 ! D152  D(57,29,30,58)         -0.2378         estimate D2E/DX2                !
 ! D153  D(29,30,31,32)         -0.0288         estimate D2E/DX2                !
 ! D154  D(29,30,31,59)        179.7615         estimate D2E/DX2                !
 ! D155  D(58,30,31,32)        179.9662         estimate D2E/DX2                !
 ! D156  D(58,30,31,59)         -0.2436         estimate D2E/DX2                !
 ! D157  D(30,31,32,27)          0.0331         estimate D2E/DX2                !
 ! D158  D(30,31,32,60)        178.9195         estimate D2E/DX2                !
 ! D159  D(59,31,32,27)       -179.7577         estimate D2E/DX2                !
 ! D160  D(59,31,32,60)         -0.8713         estimate D2E/DX2                !
 ! D161  D(19,33,34,16)          0.0829         estimate D2E/DX2                !
 ! D162  D(19,33,34,62)        179.1551         estimate D2E/DX2                !
 ! D163  D(61,33,34,16)        179.1878         estimate D2E/DX2                !
 ! D164  D(61,33,34,62)         -1.74           estimate D2E/DX2                !
 ! D165  D(8,35,36,5)            0.02           estimate D2E/DX2                !
 ! D166  D(8,35,36,64)        -178.9958         estimate D2E/DX2                !
 ! D167  D(63,35,36,5)         178.7213         estimate D2E/DX2                !
 ! D168  D(63,35,36,64)         -0.2946         estimate D2E/DX2                !
 ! D169  D(4,37,38,1)           -0.0526         estimate D2E/DX2                !
 ! D170  D(4,37,38,66)         179.7809         estimate D2E/DX2                !
 ! D171  D(65,37,38,1)        -179.2987         estimate D2E/DX2                !
 ! D172  D(65,37,38,66)          0.5349         estimate D2E/DX2                !
 --------------------------------------------------------------------------------
 Trust Radius=3.00D-01 FncErr=1.00D-07 GrdErr=1.00D-06 EigMax=2.50D+02 EigMin=1.00D-04
 Number of steps in this run=    367 maximum allowed number of steps=    396.
 GradGradGradGradGradGradGradGradGradGradGradGradGradGradGradGradGradGrad

 Leave Link  103 at Fri Jun  5 16:57:03 2026, MaxMem=  2516582400 cpu:               0.1 elap:               0.0
 (Enter /apl/gaussian/16c02/g16/l202.exe)
 Stoichiometry    C36H28N2
 Framework group  C1[X(C36H28N2)]
 Deg. of freedom   192
 Full point group                 C1      NOp   1
 Largest Abelian subgroup         C1      NOp   1
 Largest concise Abelian subgroup C1      NOp   1
                         Standard orientation:                         
 ---------------------------------------------------------------------
 Center     Atomic      Atomic             Coordinates (Angstroms)
 Number     Number       Type             X           Y           Z
 ---------------------------------------------------------------------
      1          6           0       -8.154124   -3.587443    0.334533
      2          6           0       -8.314039   -2.212524    0.485721
      3          6           0       -7.204247   -1.366372    0.409429
      4          6           0       -5.915865   -1.878743    0.182028
      5          6           0       -4.747273   -0.986722    0.102459
      6          6           0       -3.613154   -1.205922    0.898388
      7          6           0       -2.501064   -0.358407    0.823093
      8          6           0       -2.485352    0.738973   -0.052071
      9          7           0       -1.339358    1.612686   -0.131069
     10          6           0       -1.526719    3.039616   -0.250899
     11          6           0       -0.715433    3.807295   -1.105371
     12          6           0       -0.896972    5.188029   -1.221257
     13          6           0       -1.892264    5.825040   -0.484145
     14          6           0       -2.706706    5.083672    0.368358
     15          6           0       -2.525877    3.702798    0.483651
     16          6           0       -0.006420    1.060633   -0.090137
     17          6           0        1.017500    1.693206    0.632709
     18          6           0        2.310040    1.156841    0.673715
     19          6           0        2.623881   -0.029588   -0.008250
     20          7           0        3.956586   -0.582132    0.033432
     21          6           0        4.707241   -0.565618    1.267089
     22          6           0        6.081971   -0.269479    1.274089
     23          6           0        6.808255   -0.252309    2.467856
     24          6           0        6.172662   -0.531993    3.675129
     25          6           0        4.811954   -0.828550    3.690775
     26          6           0        4.085401   -0.844895    2.497151
     27          6           0        4.540020   -1.151876   -1.158473
     28          6           0        5.300193   -2.333475   -1.098706
     29          6           0        5.863772   -2.885593   -2.252131
     30          6           0        5.677845   -2.265144   -3.485085
     31          6           0        4.929080   -1.093645   -3.566692
     32          6           0        4.364737   -0.541926   -2.413442
     33          6           0        1.600182   -0.661463   -0.732105
     34          6           0        0.307189   -0.126114   -0.771683
     35          6           0       -3.620247    0.958909   -0.848268
     36          6           0       -4.731342    0.110172   -0.771807
     37          6           0       -5.777445   -3.268989    0.032929
     38          6           0       -6.886258   -4.116535    0.107823
     39          1           0       -9.016661   -4.245937    0.393260
     40          1           0       -9.301596   -1.796023    0.665806
     41          1           0       -7.350402   -0.296204    0.541831
     42          1           0       -3.590862   -2.036247    1.601522
     43          1           0       -1.651033   -0.552359    1.473118
     44          1           0        0.056024    3.327866   -1.703323
     45          1           0       -0.261984    5.762880   -1.890225
     46          1           0       -2.032928    6.899045   -0.573825
     47          1           0       -3.481487    5.578091    0.948374
     48          1           0       -3.160931    3.146093    1.168801
     49          1           0        0.813772    2.606960    1.186238
     50          1           0        3.077146    1.685815    1.234597
     51          1           0        6.594162   -0.030843    0.344881
     52          1           0        7.869061   -0.016540    2.452210
     53          1           0        6.737584   -0.518717    4.603565
     54          1           0        4.313502   -1.051036    4.630569
     55          1           0        3.027954   -1.096298    2.530405
     56          1           0        5.443015   -2.843755   -0.149011
     57          1           0        6.444139   -3.802012   -2.185155
     58          1           0        6.116292   -2.694518   -4.382134
     59          1           0        4.785177   -0.604663   -4.526556
     60          1           0        3.798816    0.382844   -2.497392
     61          1           0        1.797306   -1.589885   -1.263162
     62          1           0       -0.452699   -0.640051   -1.355806
     63          1           0       -3.641118    1.785537   -1.554762
     64          1           0       -5.584345    0.306440   -1.418476
     65          1           0       -4.797514   -3.702671   -0.156459
     66          1           0       -6.757729   -5.188852   -0.013856
 ---------------------------------------------------------------------
 Rotational constants (GHZ):           0.1262156           0.0444719           0.0390289
 Leave Link  202 at Fri Jun  5 16:57:03 2026, MaxMem=  2516582400 cpu:               0.0 elap:               0.0
 (Enter /apl/gaussian/16c02/g16/l301.exe)
 Standard basis: 6-31G(d) (6D, 7F)
 Ernie: Thresh=  0.10000D-02 Tol=  0.10000D-05 Strict=F.
 There are   626 symmetry adapted cartesian basis functions of A   symmetry.
 There are   626 symmetry adapted basis functions of A   symmetry.
   626 basis functions,  1176 primitive gaussians,   626 cartesian basis functions
   129 alpha electrons      129 beta electrons
       nuclear repulsion energy      3571.9047208089 Hartrees.
 IExCor=  402 DFT=T Ex+Corr=B3LYP ExCW=0 ScaHFX=  0.200000
 ScaDFX=  0.800000  0.720000  1.000000  0.810000 ScalE2=  1.000000  1.000000
 IRadAn=      5 IRanWt=     -1 IRanGd=            0 ICorTp=0 IEmpDi=  4
 NAtoms=   66 NActive=   66 NUniq=   66 SFac= 1.00D+00 NAtFMM=   60 NAOKFM=T Big=T
 Integral buffers will be    131072 words long.
 Raffenetti 2 integral format.
 Two-electron integral symmetry is turned on.
 Leave Link  301 at Fri Jun  5 16:57:03 2026, MaxMem=  2516582400 cpu:               0.1 elap:               0.0
 (Enter /apl/gaussian/16c02/g16/l302.exe)
 NPDir=0 NMtPBC=     1 NCelOv=     1 NCel=       1 NClECP=     1 NCelD=      1
         NCelK=      1 NCelE2=     1 NClLst=     1 CellRange=     0.0.
 One-electron integrals computed using PRISM.
 One-electron integral symmetry used in STVInt
 NBasis=   626 RedAO= T EigKep=  3.72D-04  NBF=   626
 NBsUse=   626 1.00D-06 EigRej= -1.00D+00 NBFU=   626
 Precomputing XC quadrature grid using
 IXCGrd= 4 IRadAn=           5 IRanWt=          -1 IRanGd=           0 AccXCQ= 0.00D+00.
 Generated NRdTot=       0 NPtTot=           0 NUsed=           0 NTot=          32
 NSgBfM=   604   604   604   604   604 MxSgAt=    66 MxSgA2=    66.
 Leave Link  302 at Fri Jun  5 16:57:04 2026, MaxMem=  2516582400 cpu:               8.0 elap:               0.7
 (Enter /apl/gaussian/16c02/g16/l303.exe)
 DipDrv:  MaxL=1.
 Leave Link  303 at Fri Jun  5 16:57:04 2026, MaxMem=  2516582400 cpu:               0.1 elap:               0.1
 (Enter /apl/gaussian/16c02/g16/l401.exe)
 ExpMin= 1.61D-01 ExpMax= 4.17D+03 ExpMxC= 6.27D+02 IAcc=3 IRadAn=         5 AccDes= 0.00D+00
 Harris functional with IExCor=  402 and IRadAn=       5 diagonalized for initial guess.
 HarFok:  IExCor=  402 AccDes= 0.00D+00 IRadAn=         5 IDoV= 1 UseB2=F ITyADJ=14
 ICtDFT=  3500011 ScaDFX=  1.000000  1.000000  1.000000  1.000000
 FoFCou: FMM=F IPFlag=           0 FMFlag=      100000 FMFlg1=        2001
         NFxFlg=           0 DoJE=T BraDBF=F KetDBF=T FulRan=T
         wScrn=  0.000000 ICntrl=       500 IOpCl=  0 I1Cent=   200000004 NGrid=           0
         NMat0=    1 NMatS0=      1 NMatT0=    0 NMatD0=    1 NMtDS0=    0 NMtDT0=    0
 Petite list used in FoFCou.
 Harris En= -1498.21400081633    
 JPrj=0 DoOrth=F DoCkMO=F.
 Leave Link  401 at Fri Jun  5 16:57:06 2026, MaxMem=  2516582400 cpu:              26.8 elap:               1.9
 (Enter /apl/gaussian/16c02/g16/l502.exe)
 Integral symmetry usage will be decided dynamically.
 Closed shell SCF:
 Using DIIS extrapolation, IDIIS=  1040.
 NGot=  2516582400 LenX=  2515780444 LenY=  2515387942
 Requested convergence on RMS density matrix=1.00D-08 within 128 cycles.
 Requested convergence on MAX density matrix=1.00D-06.
 Requested convergence on             energy=1.00D-06.
 No special actions if energy rises.
 Fock matrices will be formed incrementally for  20 cycles.
 Integral accuracy reduced to 1.0D-05 until final iterations.

 Cycle   1  Pass 0  IDiag  1:
 FoFJK:  IHMeth= 1 ICntrl=       0 DoSepK=F KAlg= 0 I1Cent=           0 FoldK=F
 IRaf= 770000000 NMat=       1 IRICut=       1 DoRegI=T DoRafI=F ISym2E= 0 IDoP0=0 IntGTp=1.
 FoFCou: FMM=T IPFlag=           0 FMFlag=      100000 FMFlg1=        2001
         NFxFlg=           0 DoJE=F BraDBF=F KetDBF=F FulRan=T
         wScrn=  0.000000 ICntrl=         0 IOpCl=  0 I1Cent=           0 NGrid=           0
         NMat0=    1 NMatS0=      1 NMatT0=    0 NMatD0=    1 NMtDS0=    0 NMtDT0=    0
 Symmetry not used in FoFCou.
 FMM levels:  10  Number of levels for PrismC:   9
 E= -1497.37604767167    
 DIIS: error= 3.34D-02 at cycle   1 NSaved=   1.
 NSaved= 1 IEnMin= 1 EnMin= -1497.37604767167     IErMin= 1 ErrMin= 3.34D-02
 ErrMax= 3.34D-02  0.00D+00 EMaxC= 1.00D-01 BMatC= 7.53D-01 BMatP= 7.53D-01
 IDIUse=3 WtCom= 6.66D-01 WtEn= 3.34D-01
 Coeff-Com:  0.100D+01
 Coeff-En:   0.100D+01
 Coeff:      0.100D+01
 Gap=     0.206 Goal=   None    Shift=    0.000
 GapD=    0.206 DampG=1.000 DampE=0.500 DampFc=0.5000 IDamp=-1.
 Damping current iteration by 5.00D-01
 RMSDP=3.29D-03 MaxDP=1.23D-01              OVMax= 2.27D-01

 Cycle   2  Pass 0  IDiag  1:
 RMSU=  1.61D-03    CP:  9.73D-01
 E= -1497.73059009101     Delta-E=       -0.354542419343 Rises=F Damp=T
 DIIS: error= 8.80D-03 at cycle   2 NSaved=   2.
 NSaved= 2 IEnMin= 2 EnMin= -1497.73059009101     IErMin= 2 ErrMin= 8.80D-03
 ErrMax= 8.80D-03  0.00D+00 EMaxC= 1.00D-01 BMatC= 7.11D-02 BMatP= 7.53D-01
 IDIUse=3 WtCom= 9.12D-01 WtEn= 8.80D-02
 Coeff-Com:  0.662D-01 0.934D+00
 Coeff-En:   0.107D+00 0.893D+00
 Coeff:      0.698D-01 0.930D+00
 Gap=     0.180 Goal=   None    Shift=    0.000
 RMSDP=1.18D-03 MaxDP=9.87D-02 DE=-3.55D-01 OVMax= 2.39D-01

 Cycle   3  Pass 0  IDiag  1:
 RMSU=  1.13D-03    CP:  9.61D-01  8.17D-01
 E= -1498.07643271598     Delta-E=       -0.345842624969 Rises=F Damp=F
 DIIS: error= 1.32D-02 at cycle   3 NSaved=   3.
 NSaved= 3 IEnMin= 3 EnMin= -1498.07643271598     IErMin= 2 ErrMin= 8.80D-03
 ErrMax= 1.32D-02  0.00D+00 EMaxC= 1.00D-01 BMatC= 1.12D-01 BMatP= 7.11D-02
 IDIUse=2 WtCom= 0.00D+00 WtEn= 1.00D+00
 Coeff-En:   0.000D+00 0.000D+00 0.100D+01
 Coeff:      0.000D+00 0.000D+00 0.100D+01
 Gap=     0.235 Goal=   None    Shift=    0.000
 RMSDP=2.01D-03 MaxDP=1.36D-01 DE=-3.46D-01 OVMax= 2.52D-01

 Cycle   4  Pass 0  IDiag  1:
 RMSU=  1.02D-03    CP:  9.62D-01  1.28D+00 -3.91D-01
 E= -1497.57269430919     Delta-E=        0.503738406786 Rises=F Damp=F
 DIIS: error= 3.33D-02 at cycle   4 NSaved=   4.
 NSaved= 4 IEnMin= 3 EnMin= -1498.07643271598     IErMin= 2 ErrMin= 8.80D-03
 ErrMax= 3.33D-02  0.00D+00 EMaxC= 1.00D-01 BMatC= 5.83D-01 BMatP= 7.11D-02
 IDIUse=2 WtCom= 0.00D+00 WtEn= 1.00D+00
 Coeff-En:   0.000D+00 0.000D+00 0.780D+00 0.220D+00
 Coeff:      0.000D+00 0.000D+00 0.780D+00 0.220D+00
 Gap=     0.185 Goal=   None    Shift=    0.000
 RMSDP=1.02D-03 MaxDP=6.72D-02 DE= 5.04D-01 OVMax= 1.39D-01

 Cycle   5  Pass 0  IDiag  1:
 RMSU=  1.85D-04    CP:  9.62D-01  1.03D+00  2.84D-01  4.95D-01
 E= -1498.15099817639     Delta-E=       -0.578303867198 Rises=F Damp=F
 DIIS: error= 9.47D-03 at cycle   5 NSaved=   5.
 NSaved= 5 IEnMin= 5 EnMin= -1498.15099817639     IErMin= 2 ErrMin= 8.80D-03
 ErrMax= 9.47D-03  0.00D+00 EMaxC= 1.00D-01 BMatC= 4.45D-02 BMatP= 7.11D-02
 IDIUse=3 WtCom= 9.05D-01 WtEn= 9.47D-02
 Coeff-Com:  0.247D-02 0.791D-02 0.326D+00-0.595D-01 0.723D+00
 Coeff-En:   0.000D+00 0.000D+00 0.330D+00 0.000D+00 0.670D+00
 Coeff:      0.224D-02 0.716D-02 0.326D+00-0.538D-01 0.718D+00
 Gap=     0.154 Goal=   None    Shift=    0.000
 RMSDP=4.04D-04 MaxDP=3.16D-02 DE=-5.78D-01 OVMax= 5.98D-02

 Cycle   6  Pass 0  IDiag  1:
 RMSU=  7.32D-05    CP:  9.62D-01  9.43D-01  5.60D-01  3.00D-01  7.51D-01
 E= -1498.19748161391     Delta-E=       -0.046483437523 Rises=F Damp=F
 DIIS: error= 8.63D-04 at cycle   6 NSaved=   6.
 NSaved= 6 IEnMin= 6 EnMin= -1498.19748161391     IErMin= 6 ErrMin= 8.63D-04
 ErrMax= 8.63D-04  0.00D+00 EMaxC= 1.00D-01 BMatC= 5.34D-04 BMatP= 4.45D-02
 IDIUse=3 WtCom= 9.91D-01 WtEn= 8.63D-03
 Coeff-Com: -0.189D-02 0.641D-02 0.127D+00-0.710D-01 0.451D+00 0.489D+00
 Coeff-En:   0.000D+00 0.000D+00 0.000D+00 0.000D+00 0.000D+00 0.100D+01
 Coeff:     -0.188D-02 0.635D-02 0.125D+00-0.704D-01 0.447D+00 0.493D+00
 Gap=     0.149 Goal=   None    Shift=    0.000
 RMSDP=4.30D-05 MaxDP=3.05D-03 DE=-4.65D-02 OVMax= 5.78D-03

 Cycle   7  Pass 0  IDiag  1:
 RMSU=  1.73D-05    CP:  9.62D-01  9.43D-01  5.59D-01  2.99D-01  8.44D-01
                    CP:  5.18D-01
 E= -1498.19799720580     Delta-E=       -0.000515591892 Rises=F Damp=F
 DIIS: error= 2.59D-04 at cycle   7 NSaved=   7.
 NSaved= 7 IEnMin= 7 EnMin= -1498.19799720580     IErMin= 7 ErrMin= 2.59D-04
 ErrMax= 2.59D-04  0.00D+00 EMaxC= 1.00D-01 BMatC= 2.15D-05 BMatP= 5.34D-04
 IDIUse=3 WtCom= 9.97D-01 WtEn= 2.59D-03
 Coeff-Com: -0.792D-03 0.219D-02 0.578D-01-0.341D-01 0.210D+00 0.273D+00
 Coeff-Com:  0.492D+00
 Coeff-En:   0.000D+00 0.000D+00 0.000D+00 0.000D+00 0.000D+00 0.000D+00
 Coeff-En:   0.100D+01
 Coeff:     -0.790D-03 0.219D-02 0.577D-01-0.340D-01 0.209D+00 0.272D+00
 Coeff:      0.493D+00
 Gap=     0.149 Goal=   None    Shift=    0.000
 RMSDP=1.13D-05 MaxDP=7.23D-04 DE=-5.16D-04 OVMax= 1.60D-03

 Cycle   8  Pass 0  IDiag  1:
 RMSU=  7.45D-06    CP:  9.62D-01  9.43D-01  5.60D-01  2.99D-01  8.41D-01
                    CP:  5.70D-01  5.66D-01
 E= -1498.19801684869     Delta-E=       -0.000019642887 Rises=F Damp=F
 DIIS: error= 8.65D-05 at cycle   8 NSaved=   8.
 NSaved= 8 IEnMin= 8 EnMin= -1498.19801684869     IErMin= 8 ErrMin= 8.65D-05
 ErrMax= 8.65D-05  0.00D+00 EMaxC= 1.00D-01 BMatC= 4.68D-06 BMatP= 2.15D-05
 IDIUse=1 WtCom= 1.00D+00 WtEn= 0.00D+00
 Coeff-Com: -0.974D-07-0.303D-03 0.888D-02-0.546D-02 0.305D-01 0.703D-01
 Coeff-Com:  0.337D+00 0.559D+00
 Coeff:     -0.974D-07-0.303D-03 0.888D-02-0.546D-02 0.305D-01 0.703D-01
 Coeff:      0.337D+00 0.559D+00
 Gap=     0.149 Goal=   None    Shift=    0.000
 RMSDP=4.56D-06 MaxDP=3.21D-04 DE=-1.96D-05 OVMax= 5.90D-04

 Initial convergence to 1.0D-05 achieved.  Increase integral accuracy.
 Cycle   9  Pass 1  IDiag  1:
 E= -1498.19800684323     Delta-E=        0.000010005462 Rises=F Damp=F
 DIIS: error= 1.13D-04 at cycle   1 NSaved=   1.
 NSaved= 1 IEnMin= 1 EnMin= -1498.19800684323     IErMin= 1 ErrMin= 1.13D-04
 ErrMax= 1.13D-04  0.00D+00 EMaxC= 1.00D-01 BMatC= 5.77D-06 BMatP= 5.77D-06
 IDIUse=3 WtCom= 9.99D-01 WtEn= 1.13D-03
 Coeff-Com:  0.100D+01
 Coeff-En:   0.100D+01
 Coeff:      0.100D+01
 Gap=     0.149 Goal=   None    Shift=    0.000
 RMSDP=4.56D-06 MaxDP=3.21D-04 DE= 1.00D-05 OVMax= 7.57D-04

 Cycle  10  Pass 1  IDiag  1:
 RMSU=  5.25D-05    CP:  1.00D+00
 E= -1498.19800822483     Delta-E=       -0.000001381595 Rises=F Damp=F
 DIIS: error= 5.67D-05 at cycle   2 NSaved=   2.
 NSaved= 2 IEnMin= 2 EnMin= -1498.19800822483     IErMin= 2 ErrMin= 5.67D-05
 ErrMax= 5.67D-05  0.00D+00 EMaxC= 1.00D-01 BMatC= 2.98D-06 BMatP= 5.77D-06
 IDIUse=1 WtCom= 1.00D+00 WtEn= 0.00D+00
 Coeff-Com:  0.375D+00 0.625D+00
 Coeff:      0.375D+00 0.625D+00
 Gap=     0.149 Goal=   None    Shift=    0.000
 RMSDP=7.09D-06 MaxDP=3.89D-04 DE=-1.38D-06 OVMax= 1.17D-03

 Cycle  11  Pass 1  IDiag  1:
 RMSU=  7.09D-06    CP:  1.00D+00  9.96D-01
 E= -1498.19800684535     Delta-E=        0.000001379475 Rises=F Damp=F
 DIIS: error= 6.86D-05 at cycle   3 NSaved=   3.
 NSaved= 3 IEnMin= 2 EnMin= -1498.19800822483     IErMin= 2 ErrMin= 5.67D-05
 ErrMax= 6.86D-05  0.00D+00 EMaxC= 1.00D-01 BMatC= 4.18D-06 BMatP= 2.98D-06
 IDIUse=1 WtCom= 1.00D+00 WtEn= 0.00D+00
 Coeff-Com:  0.112D-01 0.539D+00 0.450D+00
 Coeff:      0.112D-01 0.539D+00 0.450D+00
 Gap=     0.149 Goal=   None    Shift=    0.000
 RMSDP=4.03D-06 MaxDP=2.14D-04 DE= 1.38D-06 OVMax= 6.82D-04

 Cycle  12  Pass 1  IDiag  1:
 RMSU=  1.01D-06    CP:  1.00D+00  1.01D+00  4.55D-01
 E= -1498.19801151975     Delta-E=       -0.000004674399 Rises=F Damp=F
 DIIS: error= 7.94D-06 at cycle   4 NSaved=   4.
 NSaved= 4 IEnMin= 4 EnMin= -1498.19801151975     IErMin= 4 ErrMin= 7.94D-06
 ErrMax= 7.94D-06  0.00D+00 EMaxC= 1.00D-01 BMatC= 7.16D-08 BMatP= 2.98D-06
 IDIUse=1 WtCom= 1.00D+00 WtEn= 0.00D+00
 Coeff-Com: -0.301D-02 0.308D+00 0.271D+00 0.424D+00
 Coeff:     -0.301D-02 0.308D+00 0.271D+00 0.424D+00
 Gap=     0.149 Goal=   None    Shift=    0.000
 RMSDP=6.02D-07 MaxDP=2.41D-05 DE=-4.67D-06 OVMax= 7.77D-05

 Cycle  13  Pass 1  IDiag  1:
 RMSU=  1.64D-07    CP:  1.00D+00  1.01D+00  4.66D-01  4.32D-01
 E= -1498.19801159914     Delta-E=       -0.000000079386 Rises=F Damp=F
 DIIS: error= 1.85D-06 at cycle   5 NSaved=   5.
 NSaved= 5 IEnMin= 5 EnMin= -1498.19801159914     IErMin= 5 ErrMin= 1.85D-06
 ErrMax= 1.85D-06  0.00D+00 EMaxC= 1.00D-01 BMatC= 2.27D-09 BMatP= 7.16D-08
 IDIUse=1 WtCom= 1.00D+00 WtEn= 0.00D+00
 Coeff-Com: -0.224D-02 0.202D+00 0.178D+00 0.287D+00 0.334D+00
 Coeff:     -0.224D-02 0.202D+00 0.178D+00 0.287D+00 0.334D+00
 Gap=     0.149 Goal=   None    Shift=    0.000
 RMSDP=9.25D-08 MaxDP=3.55D-06 DE=-7.94D-08 OVMax= 1.09D-05

 Cycle  14  Pass 1  IDiag  1:
 RMSU=  5.63D-08    CP:  1.00D+00  1.01D+00  4.66D-01  4.43D-01  5.58D-01
 E= -1498.19801160170     Delta-E=       -0.000000002562 Rises=F Damp=F
 DIIS: error= 1.68D-07 at cycle   6 NSaved=   6.
 NSaved= 6 IEnMin= 6 EnMin= -1498.19801160170     IErMin= 6 ErrMin= 1.68D-07
 ErrMax= 1.68D-07  0.00D+00 EMaxC= 1.00D-01 BMatC= 2.84D-11 BMatP= 2.27D-09
 IDIUse=1 WtCom= 1.00D+00 WtEn= 0.00D+00
 Coeff-Com: -0.720D-03 0.626D-01 0.551D-01 0.895D-01 0.146D+00 0.648D+00
 Coeff:     -0.720D-03 0.626D-01 0.551D-01 0.895D-01 0.146D+00 0.648D+00
 Gap=     0.149 Goal=   None    Shift=    0.000
 RMSDP=1.53D-08 MaxDP=8.78D-07 DE=-2.56D-09 OVMax= 1.65D-06

 Cycle  15  Pass 1  IDiag  1:
 RMSU=  1.27D-08    CP:  1.00D+00  1.01D+00  4.66D-01  4.42D-01  5.97D-01
                    CP:  9.05D-01
 E= -1498.19801160175     Delta-E=       -0.000000000051 Rises=F Damp=F
 DIIS: error= 9.67D-08 at cycle   7 NSaved=   7.
 NSaved= 7 IEnMin= 7 EnMin= -1498.19801160175     IErMin= 7 ErrMin= 9.67D-08
 ErrMax= 9.67D-08  0.00D+00 EMaxC= 1.00D-01 BMatC= 9.08D-12 BMatP= 2.84D-11
 IDIUse=1 WtCom= 1.00D+00 WtEn= 0.00D+00
 Coeff-Com: -0.798D-04 0.567D-02 0.493D-02 0.816D-02 0.363D-01 0.400D+00
 Coeff-Com:  0.545D+00
 Coeff:     -0.798D-04 0.567D-02 0.493D-02 0.816D-02 0.363D-01 0.400D+00
 Coeff:      0.545D+00
 Gap=     0.149 Goal=   None    Shift=    0.000
 RMSDP=6.35D-09 MaxDP=4.58D-07 DE=-5.09D-11 OVMax= 9.09D-07

 SCF Done:  E(RB3LYP) =  -1498.19801160     A.U. after   15 cycles
            NFock= 15  Conv=0.64D-08     -V/T= 2.0102
 KE= 1.483122580019D+03 PE=-1.061347927771D+04 EE= 4.060253965279D+03
 Leave Link  502 at Fri Jun  5 16:57:47 2026, MaxMem=  2516582400 cpu:             592.8 elap:              40.9
 (Enter /apl/gaussian/16c02/g16/l601.exe)
 Copying SCF densities to generalized density rwf, IOpCl= 0 IROHF=0.

 **********************************************************************

            Population analysis using the SCF Density.

 **********************************************************************

 Orbital symmetries:
       Occupied  (A) (A) (A) (A) (A) (A) (A) (A) (A) (A) (A) (A)
                 (A) (A) (A) (A) (A) (A) (A) (A) (A) (A) (A) (A)
                 (A) (A) (A) (A) (A) (A) (A) (A) (A) (A) (A) (A)
                 (A) (A) (A) (A) (A) (A) (A) (A) (A) (A) (A) (A)
                 (A) (A) (A) (A) (A) (A) (A) (A) (A) (A) (A) (A)
                 (A) (A) (A) (A) (A) (A) (A) (A) (A) (A) (A) (A)
                 (A) (A) (A) (A) (A) (A) (A) (A) (A) (A) (A) (A)
                 (A) (A) (A) (A) (A) (A) (A) (A) (A) (A) (A) (A)
                 (A) (A) (A) (A) (A) (A) (A) (A) (A) (A) (A) (A)
                 (A) (A) (A) (A) (A) (A) (A) (A) (A) (A) (A) (A)
                 (A) (A) (A) (A) (A) (A) (A) (A) (A)
       Virtual   (A) (A) (A) (A) (A) (A) (A) (A) (A) (A) (A) (A)
                 (A) (A) (A) (A) (A) (A) (A) (A) (A) (A) (A) (A)
                 (A) (A) (A) (A) (A) (A) (A) (A) (A) (A) (A) (A)
                 (A) (A) (A) (A) (A) (A) (A) (A) (A) (A) (A) (A)
                 (A) (A) (A) (A) (A) (A) (A) (A) (A) (A) (A) (A)
                 (A) (A) (A) (A) (A) (A) (A) (A) (A) (A) (A) (A)
                 (A) (A) (A) (A) (A) (A) (A) (A) (A) (A) (A) (A)
                 (A) (A) (A) (A) (A) (A) (A) (A) (A) (A) (A) (A)
                 (A) (A) (A) (A) (A) (A) (A) (A) (A) (A) (A) (A)
                 (A) (A) (A) (A) (A) (A) (A) (A) (A) (A) (A) (A)
                 (A) (A) (A) (A) (A) (A) (A) (A) (A) (A) (A) (A)
                 (A) (A) (A) (A) (A) (A) (A) (A) (A) (A) (A) (A)
                 (A) (A) (A) (A) (A) (A) (A) (A) (A) (A) (A) (A)
                 (A) (A) (A) (A) (A) (A) (A) (A) (A) (A) (A) (A)
                 (A) (A) (A) (A) (A) (A) (A) (A) (A) (A) (A) (A)
                 (A) (A) (A) (A) (A) (A) (A) (A) (A) (A) (A) (A)
                 (A) (A) (A) (A) (A) (A) (A) (A) (A) (A) (A) (A)
                 (A) (A) (A) (A) (A) (A) (A) (A) (A) (A) (A) (A)
                 (A) (A) (A) (A) (A) (A) (A) (A) (A) (A) (A) (A)
                 (A) (A) (A) (A) (A) (A) (A) (A) (A) (A) (A) (A)
                 (A) (A) (A) (A) (A) (A) (A) (A) (A) (A) (A) (A)
                 (A) (A) (A) (A) (A) (A) (A) (A) (A) (A) (A) (A)
                 (A) (A) (A) (A) (A) (A) (A) (A) (A) (A) (A) (A)
                 (A) (A) (A) (A) (A) (A) (A) (A) (A) (A) (A) (A)
                 (A) (A) (A) (A) (A) (A) (A) (A) (A) (A) (A) (A)
                 (A) (A) (A) (A) (A) (A) (A) (A) (A) (A) (A) (A)
                 (A) (A) (A) (A) (A) (A) (A) (A) (A) (A) (A) (A)
                 (A) (A) (A) (A) (A) (A) (A) (A) (A) (A) (A) (A)
                 (A) (A) (A) (A) (A) (A) (A) (A) (A) (A) (A) (A)
                 (A) (A) (A) (A) (A) (A) (A) (A) (A) (A) (A) (A)
                 (A) (A) (A) (A) (A) (A) (A) (A) (A) (A) (A) (A)
                 (A) (A) (A) (A) (A) (A) (A) (A) (A) (A) (A) (A)
                 (A) (A) (A) (A) (A) (A) (A) (A) (A) (A) (A) (A)
                 (A) (A) (A) (A) (A) (A) (A) (A) (A) (A) (A) (A)
                 (A) (A) (A) (A) (A) (A) (A) (A) (A) (A) (A) (A)
                 (A) (A) (A) (A) (A) (A) (A) (A) (A) (A) (A) (A)
                 (A) (A) (A) (A) (A) (A) (A) (A) (A) (A) (A) (A)
                 (A) (A) (A) (A) (A) (A) (A) (A) (A) (A) (A) (A)
                 (A) (A) (A) (A) (A) (A) (A) (A) (A) (A) (A) (A)
                 (A) (A) (A) (A) (A) (A) (A) (A) (A) (A) (A) (A)
                 (A) (A) (A) (A) (A) (A) (A) (A) (A) (A) (A) (A)
                 (A) (A) (A) (A) (A)
 The electronic state is 1-A.
 Alpha  occ. eigenvalues --  -14.36522 -14.36460 -10.23095 -10.23054 -10.23053
 Alpha  occ. eigenvalues --  -10.23052 -10.22842 -10.22839 -10.19500 -10.19249
 Alpha  occ. eigenvalues --  -10.19019 -10.19012 -10.18978 -10.18970 -10.18964
 Alpha  occ. eigenvalues --  -10.18959 -10.18931 -10.18927 -10.18894 -10.18890
 Alpha  occ. eigenvalues --  -10.18887 -10.18883 -10.18803 -10.18789 -10.18745
 Alpha  occ. eigenvalues --  -10.18737 -10.18734 -10.18729 -10.18695 -10.18692
 Alpha  occ. eigenvalues --  -10.18679 -10.18677 -10.18669 -10.18665 -10.18590
 Alpha  occ. eigenvalues --  -10.18400 -10.18360 -10.18356  -0.95077  -0.94771
 Alpha  occ. eigenvalues --   -0.86267  -0.85271  -0.85064  -0.84610  -0.83679
 Alpha  occ. eigenvalues --   -0.82529  -0.77361  -0.75714  -0.75308  -0.74467
 Alpha  occ. eigenvalues --   -0.74353  -0.74199  -0.74038  -0.73976  -0.73778
 Alpha  occ. eigenvalues --   -0.73180  -0.71263  -0.69183  -0.63085  -0.62732
 Alpha  occ. eigenvalues --   -0.61879  -0.61172  -0.60450  -0.60339  -0.59950
 Alpha  occ. eigenvalues --   -0.59719  -0.59187  -0.58574  -0.57250  -0.56380
 Alpha  occ. eigenvalues --   -0.53189  -0.53143  -0.52726  -0.52167  -0.51256
 Alpha  occ. eigenvalues --   -0.49068  -0.48322  -0.47711  -0.47248  -0.46347
 Alpha  occ. eigenvalues --   -0.45684  -0.45054  -0.44809  -0.44637  -0.44180
 Alpha  occ. eigenvalues --   -0.44085  -0.44049  -0.43821  -0.43084  -0.42723
 Alpha  occ. eigenvalues --   -0.42260  -0.41920  -0.41888  -0.41762  -0.41703
 Alpha  occ. eigenvalues --   -0.41698  -0.41426  -0.38998  -0.37794  -0.37560
 Alpha  occ. eigenvalues --   -0.36765  -0.36731  -0.36522  -0.36340  -0.35972
 Alpha  occ. eigenvalues --   -0.35911  -0.35635  -0.35280  -0.34923  -0.34561
 Alpha  occ. eigenvalues --   -0.34344  -0.34073  -0.34040  -0.33680  -0.33411
 Alpha  occ. eigenvalues --   -0.31350  -0.29601  -0.26588  -0.25930  -0.25672
 Alpha  occ. eigenvalues --   -0.25489  -0.25061  -0.24688  -0.24526  -0.24452
 Alpha  occ. eigenvalues --   -0.24352  -0.23441  -0.19766  -0.17151
 Alpha virt. eigenvalues --   -0.02240  -0.01656  -0.01373  -0.00832  -0.00604
 Alpha virt. eigenvalues --    0.00117   0.00715   0.00778   0.00858   0.01004
 Alpha virt. eigenvalues --    0.02634   0.04482   0.09182   0.09467   0.09815
 Alpha virt. eigenvalues --    0.09839   0.10424   0.10895   0.13607   0.13865
 Alpha virt. eigenvalues --    0.14194   0.14301   0.14443   0.14730   0.14926
 Alpha virt. eigenvalues --    0.15246   0.15516   0.15668   0.15764   0.15886
 Alpha virt. eigenvalues --    0.16170   0.16611   0.17381   0.17400   0.17559
 Alpha virt. eigenvalues --    0.17808   0.18258   0.18502   0.18748   0.18842
 Alpha virt. eigenvalues --    0.18926   0.18997   0.19028   0.19279   0.19345
 Alpha virt. eigenvalues --    0.19745   0.20336   0.20741   0.25024   0.25165
 Alpha virt. eigenvalues --    0.25500   0.25553   0.25884   0.27891   0.28625
 Alpha virt. eigenvalues --    0.29239   0.29560   0.29694   0.30781   0.30835
 Alpha virt. eigenvalues --    0.30871   0.30976   0.31618   0.31785   0.32477
 Alpha virt. eigenvalues --    0.32560   0.32795   0.34460   0.35170   0.35900
 Alpha virt. eigenvalues --    0.36272   0.36785   0.37116   0.37733   0.38163
 Alpha virt. eigenvalues --    0.38449   0.39020   0.45514   0.45768   0.45915
 Alpha virt. eigenvalues --    0.46519   0.48585   0.49727   0.50103   0.50895
 Alpha virt. eigenvalues --    0.51744   0.51960   0.52266   0.52402   0.53334
 Alpha virt. eigenvalues --    0.53408   0.53802   0.54164   0.54550   0.54629
 Alpha virt. eigenvalues --    0.54703   0.54969   0.55073   0.55562   0.55678
 Alpha virt. eigenvalues --    0.55925   0.56326   0.56857   0.56994   0.57317
 Alpha virt. eigenvalues --    0.57568   0.57716   0.58152   0.58426   0.58521
 Alpha virt. eigenvalues --    0.58960   0.59056   0.59303   0.59524   0.59588
 Alpha virt. eigenvalues --    0.59778   0.59834   0.60094   0.60251   0.60512
 Alpha virt. eigenvalues --    0.60602   0.60825   0.61129   0.61234   0.61362
 Alpha virt. eigenvalues --    0.61456   0.61596   0.61637   0.61779   0.61853
 Alpha virt. eigenvalues --    0.62045   0.62091   0.62525   0.63154   0.63282
 Alpha virt. eigenvalues --    0.63485   0.63986   0.64028   0.64210   0.64484
 Alpha virt. eigenvalues --    0.64567   0.66523   0.67056   0.67460   0.67844
 Alpha virt. eigenvalues --    0.68352   0.68449   0.68799   0.69324   0.69605
 Alpha virt. eigenvalues --    0.70002   0.73405   0.75291   0.75489   0.77869
 Alpha virt. eigenvalues --    0.79365   0.79709   0.80219   0.80361   0.81326
 Alpha virt. eigenvalues --    0.81366   0.81878   0.82014   0.82175   0.82394
 Alpha virt. eigenvalues --    0.83552   0.83760   0.83900   0.84163   0.84274
 Alpha virt. eigenvalues --    0.84359   0.84394   0.84412   0.84467   0.84599
 Alpha virt. eigenvalues --    0.85017   0.85291   0.85596   0.86508   0.86572
 Alpha virt. eigenvalues --    0.86840   0.87210   0.87412   0.88449   0.88593
 Alpha virt. eigenvalues --    0.88817   0.89059   0.90317   0.90995   0.91198
 Alpha virt. eigenvalues --    0.91553   0.92053   0.92485   0.92854   0.93665
 Alpha virt. eigenvalues --    0.94470   0.95483   0.95595   0.96107   0.96694
 Alpha virt. eigenvalues --    0.96773   0.96938   0.98619   1.00352   1.00610
 Alpha virt. eigenvalues --    1.00751   1.01100   1.01277   1.01543   1.02101
 Alpha virt. eigenvalues --    1.02230   1.02937   1.04579   1.05290   1.07302
 Alpha virt. eigenvalues --    1.07798   1.08566   1.09611   1.10474   1.11013
 Alpha virt. eigenvalues --    1.11744   1.11973   1.12403   1.13694   1.14802
 Alpha virt. eigenvalues --    1.15076   1.15853   1.16486   1.16765   1.16872
 Alpha virt. eigenvalues --    1.17014   1.17317   1.17483   1.18320   1.18613
 Alpha virt. eigenvalues --    1.19579   1.19924   1.20606   1.21090   1.21389
 Alpha virt. eigenvalues --    1.22495   1.23449   1.24418   1.24700   1.25071
 Alpha virt. eigenvalues --    1.26263   1.27282   1.27708   1.28074   1.29492
 Alpha virt. eigenvalues --    1.30274   1.33411   1.35965   1.38413   1.40711
 Alpha virt. eigenvalues --    1.41143   1.41413   1.42372   1.42874   1.42956
 Alpha virt. eigenvalues --    1.43124   1.43446   1.43515   1.43629   1.44401
 Alpha virt. eigenvalues --    1.44700   1.45454   1.46455   1.46521   1.46819
 Alpha virt. eigenvalues --    1.47653   1.47921   1.48307   1.49134   1.49398
 Alpha virt. eigenvalues --    1.49552   1.49921   1.50017   1.50121   1.50854
 Alpha virt. eigenvalues --    1.51027   1.51490   1.51594   1.51787   1.51843
 Alpha virt. eigenvalues --    1.51885   1.52109   1.52765   1.56459   1.65901
 Alpha virt. eigenvalues --    1.67080   1.67641   1.69347   1.70526   1.71158
 Alpha virt. eigenvalues --    1.72467   1.74113   1.74381   1.75619   1.76622
 Alpha virt. eigenvalues --    1.77629   1.78540   1.79017   1.79537   1.80772
 Alpha virt. eigenvalues --    1.81215   1.81348   1.81717   1.81876   1.82259
 Alpha virt. eigenvalues --    1.82361   1.82835   1.83627   1.84622   1.87671
 Alpha virt. eigenvalues --    1.88009   1.89045   1.89647   1.89869   1.90403
 Alpha virt. eigenvalues --    1.90760   1.91867   1.92436   1.92638   1.92987
 Alpha virt. eigenvalues --    1.93587   1.94637   1.94809   1.95173   1.96403
 Alpha virt. eigenvalues --    1.96939   1.97373   1.97982   1.98321   1.98536
 Alpha virt. eigenvalues --    1.99615   1.99921   2.01986   2.04237   2.05140
 Alpha virt. eigenvalues --    2.05625   2.06013   2.06296   2.06730   2.07019
 Alpha virt. eigenvalues --    2.09413   2.11411   2.11863   2.12532   2.13100
 Alpha virt. eigenvalues --    2.13708   2.14027   2.14203   2.14540   2.14703
 Alpha virt. eigenvalues --    2.15286   2.15371   2.15593   2.15962   2.16154
 Alpha virt. eigenvalues --    2.16228   2.16587   2.16866   2.17865   2.18441
 Alpha virt. eigenvalues --    2.21117   2.22270   2.22840   2.23303   2.23792
 Alpha virt. eigenvalues --    2.24670   2.24958   2.27418   2.28937   2.29517
 Alpha virt. eigenvalues --    2.29609   2.30205   2.30784   2.30960   2.31106
 Alpha virt. eigenvalues --    2.31338   2.31409   2.31462   2.31691   2.31896
 Alpha virt. eigenvalues --    2.32948   2.33096   2.34993   2.38867   2.39599
 Alpha virt. eigenvalues --    2.40722   2.41222   2.42467   2.48227   2.49602
 Alpha virt. eigenvalues --    2.50378   2.51193   2.52740   2.55550   2.56375
 Alpha virt. eigenvalues --    2.57208   2.57354   2.57721   2.58194   2.59287
 Alpha virt. eigenvalues --    2.59714   2.60257   2.61617   2.62448   2.62930
 Alpha virt. eigenvalues --    2.64278   2.65010   2.65148   2.65447   2.66457
 Alpha virt. eigenvalues --    2.68097   2.69202   2.69576   2.71329   2.71949
 Alpha virt. eigenvalues --    2.72534   2.72589   2.73695   2.74019   2.74287
 Alpha virt. eigenvalues --    2.74819   2.75126   2.75248   2.75354   2.75938
 Alpha virt. eigenvalues --    2.76110   2.76621   2.76697   2.77854   2.78206
 Alpha virt. eigenvalues --    2.81559   2.83846   2.84795   2.86133   2.87762
 Alpha virt. eigenvalues --    2.93440   2.93889   2.95042   2.96619   2.97165
 Alpha virt. eigenvalues --    2.99370   3.00678   3.00844   3.11569   3.15647
 Alpha virt. eigenvalues --    3.19594   3.21811   3.23832   3.37772   3.40592
 Alpha virt. eigenvalues --    3.41603   3.42450   3.42968   3.45882   4.09148
 Alpha virt. eigenvalues --    4.09339   4.09441   4.09484   4.11152   4.11557
 Alpha virt. eigenvalues --    4.11805   4.11993   4.12035   4.12232   4.12658
 Alpha virt. eigenvalues --    4.13315   4.15064   4.17015   4.17301   4.17450
 Alpha virt. eigenvalues --    4.20382   4.20873   4.22822   4.24252   4.33179
 Alpha virt. eigenvalues --    4.33251   4.33349   4.34255   4.35103   4.35964
 Alpha virt. eigenvalues --    4.37722   4.38872   4.40004   4.41256   4.45639
 Alpha virt. eigenvalues --    4.48458   4.67363   4.70355   4.71237   4.72485
 Alpha virt. eigenvalues --    4.76271   4.78373
          Condensed to atoms (all electrons):
 Mulliken charges:
               1
     1  C   -0.126754
     2  C   -0.130881
     3  C   -0.169699
[...]
 0.00000800,0.00000920,-0.01351299,0.01162559,0.00744069,0.10884726,-0.
 13394670,-0.05671145,-0.00010269,-0.00037061,0.00040459,0.00035285,0.0
 0015634,-0.00012540,-0.00000420,0.00003623,-0.00006588,0.00000779,-0.0
 0003039,0.00000469,-0.00095333,-0.00021368,-0.00070591,0.00150649,-0.0
 0072802,-0.00066519,0.00006502,0.00010850,-0.00007283,-0.00000318,0.00
 000178,0.00000354,0.00000013,0.00000092,0.00000125,-0.00000261,0.00000
 328,0.00000301,-0.00000153,0.00000087,0.00000135,-0.00000617,0.0000095
 6,0.00000736,-0.00000091,-0.00000296,0.00000211,-0.00000536,0.00000240
 ,-0.00000201,-0.00000007,0.00000057,0.00000009,0.00000134,0.00000038,-
 0.00000056,0.00000076,-0.00000049,-0.00000117,-0.00000113,0.00000029,0
 .00000035,-0.00000007,0.00000147,-0.00000074,-0.00000074,0.00000025,-0
 .00000067,0.00000093,-0.00000100,0.00000081,0.00000077,0.00000041,0.00
 000119,-0.00000023,0.00000082,-0.00000012,-0.00000100,-0.00000203,0.00
 000048,-0.00000098,-0.00000188,0.00000006,-0.00000522,-0.00000715,-0.0
 0001094,0.00022906,0.00099465,-0.00013758,-0.11673356,0.13932474,0.000
 24179,-0.00028346,0.00007416,0.00001097,0.00051727,-0.00044103,0.00024
 912,-0.00085999,0.00061081,-0.00228967,-0.00024213,-0.00196763,-0.0000
 0655,0.00231145,0.00303089,0.00187485,0.00045186,0.00455137,-0.0001331
 2,0.00062389,-0.00026780,0.00370842,0.00183324,0.00581184,0.00088074,-
 0.00053862,-0.00011392,0.00008891,-0.00017859,0.00013435,-0.00002763,-
 0.00002347,-0.00003420,-0.00003832,0.00001917,-0.00004754,0.00003775,0
 .00007836,0.00000493,0.00000644,-0.00008210,0.00004324,0.00002165,0.00
 013651,-0.00008243,-0.00005529,0.00014727,-0.00032706,0.00011906,0.000
 02040,0.00005407,0.00001934,0.00000715,-0.00001510,-0.00005909,0.00002
 839,-0.00001280,0.00007535,-0.00002972,0.00000691,-0.00001920,0.000018
 89,0.00004519,0.00000751,-0.00000717,-0.00000529,-0.00000279,0.0000004
 2,0.00000171,0.00000510,-0.00000264,-0.00000428,-0.00000120,0.00000653
 ,0.00000696,-0.00000168,-0.00001164,-0.00001123,-0.00000897,-0.0000043
 1,-0.00004268,0.00000705,0.00000182,0.00000644,-0.00000125,0.00000138,
 -0.00000207,0.00000395,-0.00000097,0.00000395,-0.00000198,-0.00000362,
 -0.00000663,0.00000233,0.00000974,0.00000875,-0.00000145,-0.00001016,-
 0.00001134,0.00000644,-0.00003263,-0.00000748,0.00912619,-0.00759678,-
 0.00227111,0.09486435,-0.05814798,-0.08647428,0.00027925,0.00051067,-0
 .00023385,-0.00039508,0.00013521,0.00012491,0.00000374,0.00004560,0.00
 000501,-0.00002251,-0.00000427,0.00004916,-0.00060059,0.00012258,-0.00
 003286,0.00005443,0.00013808,0.00041726,-0.00037492,-0.00008351,-0.000
 76403,-0.00000754,-0.00000859,0.00000159,0.00000128,0.00000836,-0.0000
 0399,0.00000029,0.00000681,-0.00000383,-0.00000596,0.00000747,-0.00003
 008,0.00000940,-0.00002779,0.00002646,-0.00000617,0.00000132,-0.000001
 06,0.00000989,-0.00001322,-0.00000428,-0.00000137,0.00000036,0.0000007
 3,0.00000231,0.00000017,-0.00000118,0.00000144,-0.00000108,-0.00000198
 ,-0.00000105,-0.00000203,-0.00000091,0.00000125,0.00000601,0.00000005,
 -0.00000110,-0.00000011,-0.00000064,0.00000108,-0.00000140,0.00000181,
 0.00000048,0.00000010,0.00000221,-0.00000058,0.00000122,0.00000073,-0.
 00000277,-0.00000508,0.00000058,0.00000361,-0.00000202,0.00000545,-0.0
 0001580,-0.00000232,-0.00000571,-0.00219640,-0.00007467,-0.00310145,-0
 .10544537,0.06107779,0.08137982,-0.00135153,-0.00327745,0.00299256,0.0
 0048699,-0.00052128,0.00014420,0.00158287,0.00084777,0.00000743,-0.002
 55772,0.00091872,-0.00002399,-0.00012688,-0.00086767,0.00031636,-0.000
 12536,0.00017190,0.00090824,0.00014632,-0.00024598,-0.00007657,-0.0001
 0088,-0.00005676,-0.00001165,0.00008793,0.00001074,-0.00002728,0.00000
 269,-0.00002641,-0.00001643,0.00000015,0.00000029,-0.00000006,-0.00000
 163,-0.00000067,-0.00000158,0.00000260,0.00000315,-0.00000060,0.000000
 86,-0.00000448,0.00000072,-0.00000161,0.00000406,-0.00000533,-0.000044
 11,0.00003346,0.00000373,0.00000729,-0.00000244,-0.00000127,0.00000234
 ,-0.00000002,0.00000594,-0.00000984,0.00000597,-0.00000581,0.00001693,
 -0.00000902,0.00000327,-0.00000429,0.00000479,0.00001030,0.00000151,-0
 .00000214,-0.00000093,-0.00000028,0.00000030,0.00000084,0.00000085,-0.
 00000202,-0.00000121,0.00000041,0.00000140,0.00000227,0.00000181,-0.00
 000342,-0.00000222,-0.00000150,0.00000014,-0.00001087,0.00000017,0.000
 00029,0.00000228,-0.00000062,-0.00000001,0.00000055,0.00000072,-0.0000
 0090,0.00000212,-0.00000130,-0.00000024,-0.00000113,-0.00000070,0.0000
 0234,0.00000237,-0.00000470,-0.00000222,-0.00000350,0.00001394,-0.0000
 0991,0.00000404,-0.00003174,-0.00004740,0.00005134,0.00028212,0.000264
 38,-0.00001254,-0.30174475,0.08639781,-0.03587234,-0.01858901,0.010178
 16,-0.00450451,-0.00103742,0.00052552,-0.00025824,-0.00007611,0.000018
 44,-0.00012589,-0.00011434,0.00005159,0.00009687,-0.00010769,-0.000809
 82,0.00057234,0.00005044,0.00002040,0.00003898,0.00000072,0.00000086,0
 .00000105,0.00000042,0.00000104,0.00000030,-0.00000063,0.00000067,0.00
 000058,-0.00000059,-0.00000007,0.00000141,-0.00000260,0.00000222,0.000
 00340,-0.00000124,0.00000137,0.00000193,0.00000099,0.00000033,-0.00000
 047,-0.00000051,0.00000004,-0.00000037,-0.00000035,0.00000005,-0.00000
 037,0.00000004,0.00000042,-0.00000046,0.,-0.00000062,-0.00000162,-0.00
 000049,0.00000271,-0.00000023,0.00000075,-0.00000019,-0.00000105,0.000
 00124,-0.00000012,0.00000022,0.00000062,0.00000023,-0.00000007,0.00000
 041,0.00000012,-0.00000043,0.00000006,-0.00000088,-0.00000007,0.000003
 00,0.00000063,0.00000166,-0.00000215,0.00000114,-0.00000368,0.00000278
 ,0.00001382,-0.00003695,-0.00000654,-0.00005346,-0.00000324,0.32236533
 ,-0.00221801,0.00102001,0.00442428,-0.00063703,-0.00085445,0.00049100,
 -0.00010479,-0.00242656,0.00557787,0.02515934,-0.00531139,0.00302164,0
 .00156787,0.00039615,-0.00251876,-0.00006650,0.00025157,-0.00034620,-0
 .00053249,-0.00034065,0.00003816,-0.00040729,0.00036123,0.00019730,0.0
 0017706,0.00008024,-0.00010166,0.00003466,-0.00010165,0.00005730,0.000
 00139,0.00001597,-0.00001471,-0.00000285,-0.00000401,-0.00000525,0.000
 00567,0.00001907,-0.00000299,0.00000927,-0.00002209,0.00001323,-0.0000
 2016,0.00002655,-0.00003064,-0.00007122,0.00006568,0.00000536,0.000016
 77,0.00000367,-0.00000315,0.00000949,0.00000308,0.00000781,-0.00006066
 ,0.00001768,-0.00000642,0.00006568,-0.00002752,-0.00000107,-0.00001886
 ,0.00002150,0.00004261,0.00000804,-0.00000733,-0.00000535,-0.00000249,
 0.00000084,0.00000232,0.00000432,-0.00000389,-0.00000424,0.00000045,0.
 00000682,0.00000707,-0.00000242,-0.00001169,-0.00001033,-0.00000551,-0
 .00000205,-0.00003270,0.00000514,0.00000266,0.00000484,-0.00000108,0.0
 0000193,-0.00000161,0.00000336,-0.00000168,0.00000249,-0.00000144,-0.0
 0000271,-0.00000592,0.00000278,0.00000735,0.00000611,0.00000603,-0.000
 00489,-0.00002084,-0.00000806,-0.00001113,0.00003099,0.00056385,0.0000
 5138,-0.00017527,-0.00044144,-0.00079125,0.00016887,0.08526893,-0.0826
 5404,0.02373465,-0.01599485,0.00885487,-0.00283086,-0.00084145,0.00042
 645,0.00006344,0.00001736,-0.00024903,-0.00066457,0.00149964,-0.000288
 71,0.00029407,0.00006497,0.00031406,0.00051181,0.00002494,-0.00000813,
 0.00001090,-0.00000350,-0.00000295,0.00000173,0.00000127,0.00000445,0.
 ,-0.00000083,0.00000492,-0.00000128,-0.00000312,0.00000161,-0.00000667
 ,0.00000549,0.00000394,0.00001524,-0.00000100,-0.00000027,-0.00000124,
 0.00000338,0.00000076,-0.00000377,-0.00000160,0.00000014,0.00000056,0.
 00000182,0.00000028,-0.00000128,0.00000149,-0.00000074,-0.00000218,-0.
 00000121,-0.00000199,-0.00000196,0.00000047,0.00000665,0.00000043,-0.0
 0000097,-0.00000037,-0.00000065,0.00000126,-0.00000130,0.00000181,0.00
 000016,0.00000012,0.00000189,-0.00000096,0.00000035,0.00000046,-0.0000
 0245,-0.00000440,0.00000133,-0.00000424,-0.00000028,0.00000350,-0.0000
 0737,-0.00000840,-0.00000864,-0.00000559,-0.00000241,0.00002093,-0.000
 02273,0.00008663,0.00000787,-0.09312320,0.08160791,0.00218972,0.004834
 17,0.00383105,0.00013434,0.00015898,-0.00040273,0.00081828,0.00535327,
 0.00229255,-0.01652239,0.00401456,0.00183018,-0.00000137,-0.00175782,-
 0.00228538,0.00003302,0.00133822,-0.00028306,0.00017270,-0.00045188,-0
 .00003321,-0.00005005,0.00016988,-0.00003200,-0.00002498,-0.00010396,0
 .00002432,-0.00003994,0.00004660,-0.00002768,0.00000157,-0.00001301,0.
 00001726,-0.00000022,0.00000036,-0.00000152,-0.00000120,-0.00000844,0.
 00000141,-0.00000648,0.00000725,-0.00000954,0.00001487,-0.00000410,0.0
 0001246,0.00006243,-0.00003058,0.00001570,-0.00001074,-0.00000450,-0.0
 0000752,-0.00000661,-0.00000275,-0.00000934,0.00003596,-0.00001476,0.0
 0000944,-0.00004190,0.00000624,-0.00002038,0.00000145,0.00000333,-0.00
 001120,-0.00000111,0.00000093,0.00000012,0.00000002,0.00000139,0.00000
 051,-0.00000284,-0.00000122,-0.00000051,0.00000085,-0.00000040,-0.0000
 0191,0.00000525,0.00000354,-0.00000028,0.00001587,0.00000858,0.0000388
 2,-0.00000688,0.00000091,-0.00000706,0.00000261,-0.00000030,0.00000206
 ,-0.00000231,0.,-0.00000562,0.00000281,0.00000307,0.00000409,-0.000000
 34,-0.00000833,-0.00000907,0.00000398,-0.00000438,0.00001176,-0.000013
 33,0.00000380,-0.00000493,0.00023202,-0.00019889,0.00002863,-0.0002638
 0,-0.00034039,0.00028826,-0.03600523,0.02428432,-0.04818552,0.01336181
 ,-0.00508182,0.00452661,0.00070235,-0.00011318,0.00029697,-0.00012097,
 -0.00063181,-0.00080094,-0.00089337,0.00042056,0.00029725,0.00084423,0
 .00004764,-0.00134444,0.00002105,0.00003952,-0.00001542,-0.00000048,0.
 00000153,-0.00000084,-0.00000190,-0.00000437,0.00000080,-0.00000040,-0
 .00000347,0.00000213,0.00000148,0.00000024,0.00000312,-0.00000667,0.00
 000029,-0.00000881,0.00000262,0.00000339,-0.00000228,-0.00000146,0.000
 00140,0.00000135,-0.00000055,-0.00000127,0.00000033,-0.00000165,-0.000
 00047,0.00000069,-0.00000053,0.00000033,0.00000127,0.00000138,-0.00000
 141,-0.00000090,0.00000028,-0.00000134,0.00000235,0.00000046,-0.000000
 90,0.00000191,-0.00000198,0.00000120,-0.00000088,-0.00000195,-0.000000
 77,-0.00000146,-0.00000079,-0.00000217,0.00000010,0.00000098,0.0000033
 8,0.00000062,-0.00000377,0.00000239,-0.00000129,0.00000657,0.00000411,
 0.00001651,-0.00001916,-0.00002186,-0.00001062,-0.00002125,-0.00010020
 ,-0.00005171,0.03599186,-0.02962502,0.04248990,0.00000862,0.02608372,-
 0.01678250,-0.00548421,0.00134602,0.00051745,-0.00124517,-0.00025379,0
 .00030801,-0.00365062,-0.00167277,0.00227730,0.00073114,-0.00086520,0.
 00045038,0.00000911,-0.00003999,-0.00010063,-0.00002857,0.00000509,0.0
 0001440,0.00003926,0.00003154,-0.00001159,-0.00005052,-0.00001777,0.00
 001997,-0.00000741,0.00002313,-0.00000320,0.00000053,-0.00000307,0.000
 00287,-0.00000038,0.00000051,-0.00000031,-0.00000015,-0.00000266,0.000
 00106,-0.00000150,0.00000246,-0.00000241,0.00000440,-0.00000341,0.0000
 0279,0.00003256,-0.00002047,0.00000192,-0.00000678,-0.00000015,-0.0000
 0043,-0.00000039,-0.00000070,-0.00000272,0.00000386,-0.00000292,0.0000
 0290,-0.00000866,0.00000465,-0.00000317,0.00000147,-0.00000169,-0.0000
 0430,-0.00000050,0.00000096,0.00000032,0.,-0.00000018,-0.00000037,-0.0
 0000037,0.00000103,0.00000054,-0.00000004,-0.00000006,-0.00000093,-0.0
 0000167,0.00000165,0.00000050,0.00000122,-0.00000006,0.00000670,0.0000
 0027,-0.00000010,-0.00000164,0.00000037,0.00000021,-0.00000064,-0.0000
 0046,0.00000049,-0.00000158,0.00000088,0.00000011,0.00000068,0.0000004
 8,-0.00000144,-0.00000162,0.00000332,0.00000160,0.00000374,-0.00000700
 ,0.00000668,-0.00000341,0.00001388,-0.00008516,-0.00007454,-0.00029413
 ,-0.00006547,0.00017769,0.00859761,-0.02146244,0.01360249,-0.06929920,
 0.04244177,-0.02430005,0.00103025,-0.00065912,-0.00010349,-0.00015322,
 0.00144420,-0.00086035,0.00018870,-0.00005202,-0.00014097,0.00000528,0
 .00003115,0.00003256,-0.00001028,-0.00000437,0.00000933,0.,-0.00000014
 ,-0.00000044,-0.00000017,-0.00000075,0.00000020,-0.00000007,-0.0000006
 4,0.00000013,0.00000034,-0.00000037,0.00000107,-0.00000105,0.00000005,
 -0.00000302,0.00000077,0.,-0.00000112,-0.00000059,0.00000011,0.0000000
 8,0.00000021,-0.00000005,0.00000027,0.00000032,0.00000001,0.00000015,0
 .00000015,-0.00000032,0.00000011,-0.00000007,0.00000016,0.00000098,0.0
 0000062,-0.00000161,0.00000069,-0.00000081,0.00000013,0.00000092,-0.00
 000090,-0.00000005,-0.00000006,-0.00000041,-0.00000010,0.00000019,-0.0
 0000035,-0.00000006,0.00000025,-0.00000011,0.00000052,0.00000013,-0.00
 000302,-0.00000109,-0.00000155,0.00000258,-0.00000238,0.00000313,-0.00
 002775,-0.00001877,0.00001136,0.00002218,-0.00001275,0.00000285,0.0009
 8377,0.00008502,-0.00058423,0.06860240,-0.00009458,-0.00550176,0.00525
 408,0.00259245,0.00297905,0.00231233,-0.00035835,0.00042914,-0.0004074
 9,-0.00271776,0.00238130,0.00357380,0.00063414,-0.00040060,0.00029010,
 0.00000416,-0.00009594,-0.00007053,-0.00002445,-0.00004749,0.00003836,
 0.00015730,0.00010600,-0.00008056,-0.00019628,-0.00010052,0.00008405,-
 0.00003313,0.00009891,-0.00001516,-0.00000006,-0.00001526,0.00001284,0
 .00000210,0.00000385,0.00000147,-0.00000418,-0.00001340,0.00000355,-0.
 00000680,0.00001341,-0.00001016,0.00001879,-0.00001445,0.00002042,0.00
 011372,-0.00007677,0.00000129,-0.00002090,-0.00000248,-0.00000126,-0.0
 0000876,-0.00000335,-0.00001613,0.00004758,-0.00002011,0.00001406,-0.0
 0006302,0.00002118,-0.00001510,0.00001147,-0.00000887,-0.00003060,-0.0
 0000468,0.00000479,0.00000285,0.00000145,0.00000039,-0.00000115,-0.000
 00401,0.00000189,0.00000205,0.00000075,-0.00000328,-0.00000508,0.00000
 140,0.00000864,0.00000580,0.00001257,0.00000545,0.00004397,-0.00000640
 ,-0.00000038,-0.00000771,0.00000235,-0.00000089,0.00000156,-0.00000314
 ,0.00000119,-0.00000562,0.00000308,0.00000314,0.00000543,-0.00000056,-
 0.00000968,-0.00000964,0.00000500,0.00000371,0.00001540,-0.00002327,0.
 00001827,-0.00001669,-0.00003826,-0.00004809,-0.00004073,-0.00022605,0
 .00003164,0.00007113,0.00478965,-0.00966408,0.00744425,0.04214299,-0.2
 4490500,0.13242482,0.00000763,-0.00051699,-0.00217538,-0.00003869,-0.0
 0029969,0.00040745,-0.00003443,-0.00044194,-0.00052441,0.00004270,0.00
 003217,-0.00000716,-0.00001936,-0.00000015,0.00001510,-0.00000015,0.00
 000105,-0.00000204,-0.00000228,-0.00000507,0.00000006,0.00000079,-0.00
 000438,0.00000117,0.00000257,-0.00000004,0.00000198,-0.00000215,-0.000
 00282,-0.00001238,0.00000353,0.00000089,-0.00000322,-0.00000282,0.0000
 0060,0.00000253,0.00000070,-0.00000086,0.00000018,-0.00000148,-0.00000
 042,0.00000114,-0.00000070,0.00000022,0.00000180,0.00000107,0.00000033
 ,0.00000116,0.,-0.00000497,0.00000156,0.00000014,-0.00000027,0.0000019
 7,-0.00000234,0.00000138,-0.00000132,-0.00000169,-0.00000066,-0.000001
 65,-0.00000034,-0.00000164,0.00000021,0.00000149,0.00000423,-0.0000000
 3,-0.00000417,0.00000059,-0.00000413,0.00000753,0.00000028,0.00001294,
 -0.00002011,-0.00002236,0.00001404,0.00003355,0.00000243,-0.00000131,-
 0.00041844,-0.00051860,-0.00222963,-0.04625888,0.25659715,0.00086054,0
 .00185618,0.00109462,-0.00008528,0.00265683,0.00510056,0.00017982,-0.0
 0047733,0.00001079,0.00277529,0.00330530,0.00496839,-0.00037450,0.0005
 2138,0.00006855,-0.00001610,0.00003602,-0.00005539,0.00003758,0.000054
 45,-0.00002024,-0.00011819,-0.00006170,0.00007656,0.00012661,0.0000683
 4,-0.00007253,0.00002137,-0.00006606,0.00001182,0.00000054,0.00000952,
 -0.00000915,-0.00000141,-0.00000329,-0.00000121,0.00000234,0.00000830,
 -0.00000337,0.00000489,-0.00000827,0.00000624,-0.00000910,0.00001128,-
 0.00001439,-0.00006989,0.00004766,-0.00000048,0.00001082,-0.00000008,0
 .00000103,0.00000792,0.00000124,0.00001029,-0.00003404,0.00001213,-0.0
 0000985,0.00004176,-0.00002037,-0.00000012,-0.00001280,0.00001450,0.00
 002807,0.00000525,-0.00000498,-0.00000340,-0.00000159,0.00000070,0.000
 00176,0.00000255,-0.00000317,-0.00000288,0.00000058,0.00000452,0.00000
 500,-0.00000009,-0.00000804,-0.00000680,-0.00000201,0.00000003,-0.0000
 2035,0.00000221,0.00000160,0.00000323,-0.00000052,0.00000100,-0.000000
 32,0.00000217,-0.00000138,0.00000201,-0.00000117,-0.00000120,-0.000003
 33,0.00000087,0.00000462,0.00000379,-0.00000178,-0.00000410,-0.0000098
 6,0.00001111,-0.00001200,0.00001289,0.00009331,0.00003621,0.00000838,0
 .00016480,0.00003788,-0.00021472,-0.00384992,0.01041688,-0.00426437,-0
 .02464377,0.13257932,-0.11975223,-0.00053488,-0.00203725,-0.00238344,0
 .00008854,0.00023509,0.00018327,-0.00011322,-0.00052654,-0.00087289,0.
 00001974,0.00003132,-0.00001211,0.00001690,0.00000330,-0.00001046,-0.0
 0000088,-0.00000047,0.00000149,0.00000091,0.00000305,0.00000039,-0.000
 00078,0.00000291,-0.00000039,-0.00000239,0.00000082,-0.00000137,0.0000
 0046,0.00000209,0.00000878,-0.00000208,0.00000061,0.00000146,0.0000024
 9,0.00000051,-0.00000193,-0.00000120,-0.00000003,0.00000015,0.00000076
 ,0.00000020,-0.00000083,0.00000090,-0.00000021,-0.00000144,-0.00000075
 ,-0.00000144,-0.00000187,0.,0.00000484,-0.00000003,-0.00000008,-0.0000
 0045,-0.00000071,0.00000104,-0.00000064,0.00000109,0.00000010,0.000000
 06,0.00000086,-0.00000039,0.00000002,0.00000005,-0.00000119,-0.0000024
 7,0.00000066,0.00000142,0.00000076,0.00000320,-0.00000341,0.,-0.000007
 01,0.00002321,0.00001790,0.00000272,-0.00000433,-0.00002266,-0.0000278
 8,-0.00015619,-0.00233460,-0.00247247,0.02553513,-0.14639063,0.1186417
 3\\0.00000204,0.00000162,-0.00000106,-0.00000033,0.00000262,-0.0000018
 4,0.00000029,0.00000049,0.00000063,0.00000204,0.00000135,-0.00000089,0
 .00000028,-0.00000012,-0.00000008,-0.00000080,-0.00000117,0.00000045,-
 0.00000113,-0.00000229,0.00000099,-0.00000749,-0.00000369,0.00000360,0
 .00000387,-0.00000059,-0.00000075,-0.00000135,0.00000425,-0.00000051,-
 0.00000129,-0.00000043,-0.00000216,0.00000142,0.00000198,-0.00000017,0
 .00000121,-0.00000331,0.00000317,-0.00000158,-0.00000065,-0.00000156,0
 .00000155,0.00000282,-0.00000090,-0.00000044,-0.00000008,-0.00000091,0
 .00000389,-0.00000091,0.00000214,-0.00000537,-0.00000091,-0.00000228,0
 .00000998,-0.00000262,0.00000027,-0.00001854,0.00000223,-0.00000403,0.
 00000980,-0.00000120,-0.00000574,-0.00000333,-0.00000165,0.00000099,0.
 00000286,-0.00000055,-0.00000096,-0.00000216,0.00000355,0.00000368,-0.
 00000216,-0.00000243,-0.00000127,0.00000283,-0.00000021,0.00000048,0.0
 0000657,-0.00000014,0.00001096,-0.00000161,0.00000246,-0.00000190,0.00
 000266,-0.00000227,0.00000195,-0.00000324,-0.00000248,-0.00000490,0.00
 000008,0.00000316,0.00000113,0.00000313,-0.00000281,-0.00000089,-0.000
 00545,0.00000413,0.00000161,0.00000552,-0.00000125,0.00000009,-0.00000
 316,-0.00000029,0.00000098,-0.00000099,0.00000097,0.00000039,-0.000000
 35,0.00000029,-0.00000092,0.00000264,-0.00000034,0.00000053,-0.0000006
 6,-0.00000005,0.00000031,-0.00000071,-0.00000105,0.00000200,-0.0000013
 7,-0.00000103,-0.00000005,0.00000036,0.00000103,-0.00000112,0.00000102
 ,0.00000148,-0.00000041,0.00000075,-0.00000010,0.00000071,-0.00000068,
 0.00000028,-0.00000066,0.00000009,0.00000080,-0.00000039,0.00000082,0.
 00000122,-0.00000003,-0.00000019,-0.00000048,-0.00000026,-0.00000056,0
 .00000010,-0.00000072,0.00000025,0.00000039,-0.00000034,0.00000037,0.0
 0000105,0.00000099,-0.00000063,-0.00000119,-0.00000066,0.00000015,-0.0
 0000072,-0.00000057,0.00000097,-0.00000019,-0.00000039,-0.00000130,-0.
 00000002,0.00000041,-0.00000037,-0.00000157,-0.00000140,-0.00000004,0.
 00000088,0.00000056,0.00000048,-0.00000003,0.00000063,0.00000103,-0.00
 000097,0.00000071,-0.00000069,0.00000039,-0.00000088,-0.00000004,-0.00
 000070,0.00000011,-0.00000029,0.00000050,0.00000052,0.00000163,0.00000
 056,-0.00000085,0.00000156,0.00000047,0.00000027,-0.00000128,-0.000000
 20,0.00000149,-0.00000257,-0.00000036,-0.00000030\\\@
 The archive entry for this job was punched.


 THE ... SCIENTISTS WERE WRONG ... THE MOST PERSISTENT PRINCIPLES 
 OF THE UNIVERSE WERE ACCIDENT AND ERROR.

                          -- FRANK HERBERT IN DUNE
 Job cpu time:       0 days  4 hours  4 minutes  0.7 seconds.
 Elapsed time:       0 days  0 hours 15 minutes 37.3 seconds.
 File lengths (MBytes):  RWF=   2676 Int=      0 D2E=      0 Chk=     35 Scr=      1
 Normal termination of Gaussian 16 at Fri Jun  5 17:21:24 2026.
