 Entering Gaussian System, Link 0=/apl/gaussian/16c02/g16/._.g16
 Initial command:
 /apl/gaussian/16c02/g16/l1.exe "/lwork/users/sm2/679438.ccpbs1/gaussian/Gau-2996731.inp" -scrdir="/lwork/users/sm2/679438.ccpbs1/gaussian/"
 Default CPUs for threads: 96,97,98,99,100,101,102,103,104,105,106,107,108,109,11
 0,111
 Default is to use a total of  16 processors:
                               16 via shared-memory
                                1 via Linda
 Entering Link 1 = /apl/gaussian/16c02/g16/l1.exe PID=   2996732.
  
 Copyright (c) 1988-2021, Gaussian, Inc.  All Rights Reserved.
  
 This is part of the Gaussian(R) 16 program.  It is based on
 the Gaussian(R) 09 system (copyright 2009, Gaussian, Inc.),
 the Gaussian(R) 03 system (copyright 2003, Gaussian, Inc.),
 the Gaussian(R) 98 system (copyright 1998, Gaussian, Inc.),
 the Gaussian(R) 94 system (copyright 1995, Gaussian, Inc.),
 the Gaussian 92(TM) system (copyright 1992, Gaussian, Inc.),
 the Gaussian 90(TM) system (copyright 1990, Gaussian, Inc.),
 the Gaussian 88(TM) system (copyright 1988, Gaussian, Inc.),
 the Gaussian 86(TM) system (copyright 1986, Carnegie Mellon
 University), and the Gaussian 82(TM) system (copyright 1983,
 Carnegie Mellon University). Gaussian is a federally registered
 trademark of Gaussian, Inc.
  
 This software contains proprietary and confidential information,
 including trade secrets, belonging to Gaussian, Inc.
  
 This software is provided under written license and may be
 used, copied, transmitted, or stored only in accord with that
 written license.
  
 The following legend is applicable only to US Government
 contracts under FAR:
  
                    RESTRICTED RIGHTS LEGEND
  
 Use, reproduction and disclosure by the US Government is
 subject to restrictions as set forth in subparagraphs (a)
 and (c) of the Commercial Computer Software - Restricted
 Rights clause in FAR 52.227-19.
  
 Gaussian, Inc.
 340 Quinnipiac St., Bldg. 40, Wallingford CT 06492
  
  
 ---------------------------------------------------------------
 Warning -- This program may not be used in any manner that
 competes with the business of Gaussian, Inc. or will provide
 assistance to any competitor of Gaussian, Inc.  The licensee
 of this program is prohibited from giving any competitor of
 Gaussian, Inc. access to this program.  By using this program,
 the user acknowledges that Gaussian, Inc. is engaged in the
 business of creating and licensing software in the field of
 computational chemistry and represents and warrants to the
 licensee that it is not a competitor of Gaussian, Inc. and that
 it will not use this program in any manner prohibited above.
 ---------------------------------------------------------------
  

 Cite this work as:
 Gaussian 16, Revision C.02,
 M. J. Frisch, G. W. Trucks, H. B. Schlegel, G. E. Scuseria, 
 M. A. Robb, J. R. Cheeseman, G. Scalmani, V. Barone, 
 G. A. Petersson, H. Nakatsuji, X. Li, M. Caricato, A. V. Marenich, 
 J. Bloino, B. G. Janesko, R. Gomperts, B. Mennucci, H. P. Hratchian, 
 J. V. Ortiz, A. F. Izmaylov, J. L. Sonnenberg, D. Williams-Young, 
 F. Ding, F. Lipparini, F. Egidi, J. Goings, B. Peng, A. Petrone, 
 T. Henderson, D. Ranasinghe, V. G. Zakrzewski, J. Gao, N. Rega, 
 G. Zheng, W. Liang, M. Hada, M. Ehara, K. Toyota, R. Fukuda, 
 J. Hasegawa, M. Ishida, T. Nakajima, Y. Honda, O. Kitao, H. Nakai, 
 T. Vreven, K. Throssell, J. A. Montgomery, Jr., J. E. Peralta, 
 F. Ogliaro, M. J. Bearpark, J. J. Heyd, E. N. Brothers, K. N. Kudin, 
 V. N. Staroverov, T. A. Keith, R. Kobayashi, J. Normand, 
 K. Raghavachari, A. P. Rendell, J. C. Burant, S. S. Iyengar, 
 J. Tomasi, M. Cossi, J. M. Millam, M. Klene, C. Adamo, R. Cammi, 
 J. W. Ochterski, R. L. Martin, K. Morokuma, O. Farkas, 
 J. B. Foresman, and D. J. Fox, Gaussian, Inc., Wallingford CT, 2019.
 
 ******************************************
 Gaussian 16:  ES64L-G16RevC.02  7-Dec-2021
                 5-Jun-2026 
 ******************************************
 %chk=Spiro-OMeTAD.chk
 %mem=19200MB
 SetSPE:  set environment variable "OMP_PROC_BIND" = "true"
 SetSPE:  set environment variable "OMP_PLACES" = "{96},{97},{98},{99},{100},{101},{102},{103},{104},{105},{106},{107},{108},{109},{110},{111}"
 --------------------------
 #p B3LYP/6-31G(d) opt freq
 --------------------------
 1/18=20,19=15,26=3,38=1/1,3;
 2/9=110,12=2,17=6,18=5,40=1/2;
 3/5=1,6=6,7=1,11=2,25=1,30=1,71=1,74=-5/1,2,3;
 4//1;
 5/5=2,38=5/2;
 6/7=2,8=2,9=2,10=2,28=1/1;
 7//1,2,3,16;
 1/18=20,19=15,26=3/3(2);
 2/9=110/2;
 99//99;
 2/9=110/2;
 3/5=1,6=6,7=1,11=2,25=1,30=1,71=1,74=-5/1,2,3;
 4/5=5,16=3,69=1/1;
 5/5=2,38=5/2;
 7//1,2,3,16;
 1/18=20,19=15,26=3/3(-5);
 2/9=110/2;
 6/7=2,8=2,9=2,10=2,19=2,28=1/1;
 99/9=1/99;
 Leave Link    1 at Fri Jun  5 17:01:39 2026, MaxMem=  2516582400 cpu:               0.1 elap:               0.1
 (Enter /apl/gaussian/16c02/g16/l101.exe)
 ------------------------------------------
 Spiro-OMeTAD - B3LYP/6-31G(d) optimization
 ------------------------------------------
 Symbolic Z-matrix:
 Charge =  0 Multiplicity = 1
 C                     9.06089   3.76581  -3.28222 
 O                     7.74579   3.38276  -3.66408 
 C                     7.06613   2.56577  -2.80393 
 C                     5.78499   2.20886  -3.22645 
 C                     4.97939   1.37716  -2.4422 
 C                     5.43962   0.88114  -1.21241 
 N                     4.61343   0.02324  -0.39805 
 C                     5.19536  -1.10483   0.28821 
 C                     4.80299  -1.43777   1.59602 
 C                     5.36421  -2.5321    2.26731 
 C                     6.3303   -3.31733   1.64138 
 O                     6.95531  -4.40758   2.17994 
 C                     6.57374  -4.78085   3.49796 
 C                     6.72865  -2.99779   0.34269 
 C                     6.16981  -1.9053   -0.328 
 C                     3.19376   0.28632  -0.27808 
 C                     2.72344   1.6345   -0.12743 
 C                     1.36075   1.94434  -0.00595 
 C                     0.51881   0.87609  -0.04061 
 C                     0.95418  -0.43234  -0.18383 
 C                     2.2671   -0.77849  -0.30574 
 C                    -0.37044  -0.87865  -0.13467 
 C                    -1.21275  -1.94638  -0.1733 
 C                    -2.57561  -1.63611  -0.05413 
 C                    -3.04628  -0.28792   0.09663 
 N                    -4.46626  -0.02474   0.21451 
 C                    -4.9392    0.96939   1.14722 
 C                    -5.97904   1.84986   0.803 
 C                    -6.44052   2.81794   1.7047 
 C                    -5.8703    2.92325   2.97179 
 O                    -6.22457   3.81795   3.94302 
 C                    -7.2666    4.73195   3.62547 
 C                    -4.83753   2.05436   3.32652 
 C                    -4.37507   1.08877   2.42689 
 C                    -5.40472  -0.74754  -0.60897 
 C                    -5.12673  -1.02005  -1.95743 
 C                    -6.0412   -1.72099  -2.74992 
 C                    -7.25144  -2.16733  -2.21742 
 O                    -8.05169  -2.83906  -3.09924 
 C                    -9.29416  -3.31971  -2.60204 
 C                    -7.54206  -1.90531  -0.88002 
 C                    -6.62728  -1.20181  -0.08541 
 C                    -2.11876   0.77601   0.13039 
 C                    -0.80556   0.4294    0.01216 
 C                     6.73162   1.24838  -0.79886 
 C                     7.53764   2.08238  -1.58508 
 H                     9.71665   2.89326  -3.19414 
 H                     9.46471   4.40706  -4.07163 
 H                     9.0488    4.34748  -2.35455 
 H                     5.409     2.57728  -4.17781 
 H                     3.99363   1.10467  -2.81135 
 H                     4.06351  -0.83114   2.11429 
 H                     5.02426  -2.73654   3.27683 
 H                     6.80895  -3.98846   4.21619 
 H                     5.5137   -5.05218   3.54049 
 H                     7.15491  -5.66527   3.77631 
 H                     7.47837  -3.60687  -0.15641 
 H                     6.48934  -1.69676  -1.34621 
 H                     3.44477   2.44932  -0.08841 
 H                     1.01068   2.9612    0.11035 
 H                     2.57291  -1.80871  -0.43392 
 H                    -0.86251  -2.96377  -0.2842 
 H                    -3.29432  -2.45413  -0.06036 
 H                    -6.4286    1.80162  -0.18647 
 H                    -7.24217   3.47243   1.37994 
 H                    -7.42496   5.37422   4.49716 
 H                    -8.20567   4.2057    3.42477 
 H                    -6.9854    5.37496   2.7849 
 H                    -4.38821   2.1259    4.31403 
 H                    -3.58027   0.41726   2.74247 
 H                    -4.20103  -0.67224  -2.40956 
 H                    -5.80645  -1.91693  -3.79335 
 H                    -9.93308  -2.49411  -2.27151 
 H                    -9.14275  -4.04916  -1.7995 
 H                    -9.80776  -3.82982  -3.42268 
 H                    -8.46666  -2.23476  -0.4185 
 H                    -6.8705   -1.02657   0.96035 
 H                    -2.42581   1.80932   0.22656 
 H                     7.11783   0.89942   0.15637 
 H                     8.52401   2.33412  -1.21073 
 
 ITRead=  0  0  0  0  0  0  0  0  0  0  0  0  0  0  0  0  0  0  0  0
 ITRead=  0  0  0  0  0  0  0  0  0  0  0  0  0  0  0  0  0  0  0  0
 ITRead=  0  0  0  0  0  0  0  0  0  0  0  0  0  0  0  0  0  0  0  0
 ITRead=  0  0  0  0  0  0  0  0  0  0  0  0  0  0  0  0  0  0  0  0
 MicOpt= -1 -1 -1 -1 -1 -1 -1 -1 -1 -1 -1 -1 -1 -1 -1 -1 -1 -1 -1 -1
 MicOpt= -1 -1 -1 -1 -1 -1 -1 -1 -1 -1 -1 -1 -1 -1 -1 -1 -1 -1 -1 -1
 MicOpt= -1 -1 -1 -1 -1 -1 -1 -1 -1 -1 -1 -1 -1 -1 -1 -1 -1 -1 -1 -1
 MicOpt= -1 -1 -1 -1 -1 -1 -1 -1 -1 -1 -1 -1 -1 -1 -1 -1 -1 -1 -1 -1
 NAtoms=     80 NQM=       80 NQMF=       0 NMMI=      0 NMMIF=      0
                NMic=       0 NMicF=      0.
                    Isotopes and Nuclear Properties:
 (Nuclear quadrupole moments (NQMom) in fm**2, nuclear magnetic moments (NMagM)
  in nuclear magnetons)

  Atom         1           2           3           4           5           6           7           8           9          10
 IAtWgt=          12          16          12          12          12          12          14          12          12          12
 AtmWgt=  12.0000000  15.9949146  12.0000000  12.0000000  12.0000000  12.0000000  14.0030740  12.0000000  12.0000000  12.0000000
 NucSpn=           0           0           0           0           0           0           2           0           0           0
 AtZEff=  -0.0000000  -0.0000000  -0.0000000  -0.0000000  -0.0000000  -0.0000000  -0.0000000  -0.0000000  -0.0000000  -0.0000000
 NQMom=    0.0000000   0.0000000   0.0000000   0.0000000   0.0000000   0.0000000   2.0440000   0.0000000   0.0000000   0.0000000
 NMagM=    0.0000000   0.0000000   0.0000000   0.0000000   0.0000000   0.0000000   0.4037610   0.0000000   0.0000000   0.0000000
 AtZNuc=   6.0000000   8.0000000   6.0000000   6.0000000   6.0000000   6.0000000   7.0000000   6.0000000   6.0000000   6.0000000

  Atom        11          12          13          14          15          16          17          18          19          20
 IAtWgt=          12          16          12          12          12          12          12          12          12          12
 AtmWgt=  12.0000000  15.9949146  12.0000000  12.0000000  12.0000000  12.0000000  12.0000000  12.0000000  12.0000000  12.0000000
 NucSpn=           0           0           0           0           0           0           0           0           0           0
 AtZEff=  -0.0000000  -0.0000000  -0.0000000  -0.0000000  -0.0000000  -0.0000000  -0.0000000  -0.0000000  -0.0000000  -0.0000000
 NQMom=    0.0000000   0.0000000   0.0000000   0.0000000   0.0000000   0.0000000   0.0000000   0.0000000   0.0000000   0.0000000
 NMagM=    0.0000000   0.0000000   0.0000000   0.0000000   0.0000000   0.0000000   0.0000000   0.0000000   0.0000000   0.0000000
 AtZNuc=   6.0000000   8.0000000   6.0000000   6.0000000   6.0000000   6.0000000   6.0000000   6.0000000   6.0000000   6.0000000

  Atom        21          22          23          24          25          26          27          28          29          30
 IAtWgt=          12          12          12          12          12          14          12          12          12          12
 AtmWgt=  12.0000000  12.0000000  12.0000000  12.0000000  12.0000000  14.0030740  12.0000000  12.0000000  12.0000000  12.0000000
 NucSpn=           0           0           0           0           0           2           0           0           0           0
 AtZEff=  -0.0000000  -0.0000000  -0.0000000  -0.0000000  -0.0000000  -0.0000000  -0.0000000  -0.0000000  -0.0000000  -0.0000000
 NQMom=    0.0000000   0.0000000   0.0000000   0.0000000   0.0000000   2.0440000   0.0000000   0.0000000   0.0000000   0.0000000
 NMagM=    0.0000000   0.0000000   0.0000000   0.0000000   0.0000000   0.4037610   0.0000000   0.0000000   0.0000000   0.0000000
 AtZNuc=   6.0000000   6.0000000   6.0000000   6.0000000   6.0000000   7.0000000   6.0000000   6.0000000   6.0000000   6.0000000

  Atom        31          32          33          34          35          36          37          38          39          40
 IAtWgt=          16          12          12          12          12          12          12          12          16          12
 AtmWgt=  15.9949146  12.0000000  12.0000000  12.0000000  12.0000000  12.0000000  12.0000000  12.0000000  15.9949146  12.0000000
 NucSpn=           0           0           0           0           0           0           0           0           0           0
 AtZEff=  -0.0000000  -0.0000000  -0.0000000  -0.0000000  -0.0000000  -0.0000000  -0.0000000  -0.0000000  -0.0000000  -0.0000000
 NQMom=    0.0000000   0.0000000   0.0000000   0.0000000   0.0000000   0.0000000   0.0000000   0.0000000   0.0000000   0.0000000
 NMagM=    0.0000000   0.0000000   0.0000000   0.0000000   0.0000000   0.0000000   0.0000000   0.0000000   0.0000000   0.0000000
 AtZNuc=   8.0000000   6.0000000   6.0000000   6.0000000   6.0000000   6.0000000   6.0000000   6.0000000   8.0000000   6.0000000

  Atom        41          42          43          44          45          46          47          48          49          50
 IAtWgt=          12          12          12          12          12          12           1           1           1           1
 AtmWgt=  12.0000000  12.0000000  12.0000000  12.0000000  12.0000000  12.0000000   1.0078250   1.0078250   1.0078250   1.0078250
 NucSpn=           0           0           0           0           0           0           1           1           1           1
 AtZEff=  -0.0000000  -0.0000000  -0.0000000  -0.0000000  -0.0000000  -0.0000000  -0.0000000  -0.0000000  -0.0000000  -0.0000000
 NQMom=    0.0000000   0.0000000   0.0000000   0.0000000   0.0000000   0.0000000   0.0000000   0.0000000   0.0000000   0.0000000
 NMagM=    0.0000000   0.0000000   0.0000000   0.0000000   0.0000000   0.0000000   2.7928460   2.7928460   2.7928460   2.7928460
 AtZNuc=   6.0000000   6.0000000   6.0000000   6.0000000   6.0000000   6.0000000   1.0000000   1.0000000   1.0000000   1.0000000

  Atom        51          52          53          54          55          56          57          58          59          60
 IAtWgt=           1           1           1           1           1           1           1           1           1           1
 AtmWgt=   1.0078250   1.0078250   1.0078250   1.0078250   1.0078250   1.0078250   1.0078250   1.0078250   1.0078250   1.0078250
 NucSpn=           1           1           1           1           1           1           1           1           1           1
 AtZEff=  -0.0000000  -0.0000000  -0.0000000  -0.0000000  -0.0000000  -0.0000000  -0.0000000  -0.0000000  -0.0000000  -0.0000000
 NQMom=    0.0000000   0.0000000   0.0000000   0.0000000   0.0000000   0.0000000   0.0000000   0.0000000   0.0000000   0.0000000
 NMagM=    2.7928460   2.7928460   2.7928460   2.7928460   2.7928460   2.7928460   2.7928460   2.7928460   2.7928460   2.7928460
 AtZNuc=   1.0000000   1.0000000   1.0000000   1.0000000   1.0000000   1.0000000   1.0000000   1.0000000   1.0000000   1.0000000

  Atom        61          62          63          64          65          66          67          68          69          70
 IAtWgt=           1           1           1           1           1           1           1           1           1           1
 AtmWgt=   1.0078250   1.0078250   1.0078250   1.0078250   1.0078250   1.0078250   1.0078250   1.0078250   1.0078250   1.0078250
 NucSpn=           1           1           1           1           1           1           1           1           1           1
 AtZEff=  -0.0000000  -0.0000000  -0.0000000  -0.0000000  -0.0000000  -0.0000000  -0.0000000  -0.0000000  -0.0000000  -0.0000000
 NQMom=    0.0000000   0.0000000   0.0000000   0.0000000   0.0000000   0.0000000   0.0000000   0.0000000   0.0000000   0.0000000
 NMagM=    2.7928460   2.7928460   2.7928460   2.7928460   2.7928460   2.7928460   2.7928460   2.7928460   2.7928460   2.7928460
 AtZNuc=   1.0000000   1.0000000   1.0000000   1.0000000   1.0000000   1.0000000   1.0000000   1.0000000   1.0000000   1.0000000

  Atom        71          72          73          74          75          76          77          78          79          80
 IAtWgt=           1           1           1           1           1           1           1           1           1           1
 AtmWgt=   1.0078250   1.0078250   1.0078250   1.0078250   1.0078250   1.0078250   1.0078250   1.0078250   1.0078250   1.0078250
 NucSpn=           1           1           1           1           1           1           1           1           1           1
 AtZEff=  -0.0000000  -0.0000000  -0.0000000  -0.0000000  -0.0000000  -0.0000000  -0.0000000  -0.0000000  -0.0000000  -0.0000000
 NQMom=    0.0000000   0.0000000   0.0000000   0.0000000   0.0000000   0.0000000   0.0000000   0.0000000   0.0000000   0.0000000
 NMagM=    2.7928460   2.7928460   2.7928460   2.7928460   2.7928460   2.7928460   2.7928460   2.7928460   2.7928460   2.7928460
 AtZNuc=   1.0000000   1.0000000   1.0000000   1.0000000   1.0000000   1.0000000   1.0000000   1.0000000   1.0000000   1.0000000
 Leave Link  101 at Fri Jun  5 17:01:39 2026, MaxMem=  2516582400 cpu:               0.2 elap:               0.2
 (Enter /apl/gaussian/16c02/g16/l103.exe)

 GradGradGradGradGradGradGradGradGradGradGradGradGradGradGradGradGradGrad
 Berny optimization.
 Initialization pass.
                           ----------------------------
                           !    Initial Parameters    !
                           ! (Angstroms and Degrees)  !
 --------------------------                            --------------------------
 ! Name  Definition              Value          Derivative Info.                !
 --------------------------------------------------------------------------------
 ! R1    R(1,2)                  1.422          estimate D2E/DX2                !
 ! R2    R(1,47)                 1.095          estimate D2E/DX2                !
 ! R3    R(1,48)                 1.0943         estimate D2E/DX2                !
 ! R4    R(1,49)                 1.095          estimate D2E/DX2                !
 ! R5    R(2,3)                  1.3672         estimate D2E/DX2                !
 ! R6    R(3,4)                  1.3954         estimate D2E/DX2                !
 ! R7    R(3,46)                 1.3934         estimate D2E/DX2                !
 ! R8    R(4,5)                  1.3985         estimate D2E/DX2                !
 ! R9    R(4,50)                 1.0873         estimate D2E/DX2                !
 ! R10   R(5,6)                  1.4036         estimate D2E/DX2                !
 ! R11   R(5,51)                 1.0873         estimate D2E/DX2                !
 ! R12   R(6,7)                  1.4428         estimate D2E/DX2                !
 ! R13   R(6,45)                 1.4054         estimate D2E/DX2                !
 ! R14   R(7,8)                  1.443          estimate D2E/DX2                !
 ! R15   R(7,16)                 1.4488         estimate D2E/DX2                !
 ! R16   R(8,9)                  1.4054         estimate D2E/DX2                !
 ! R17   R(8,15)                 1.4036         estimate D2E/DX2                !
 ! R18   R(9,10)                 1.4011         estimate D2E/DX2                !
 ! R19   R(9,52)                 1.0878         estimate D2E/DX2                !
 ! R20   R(10,11)                1.3934         estimate D2E/DX2                !
 ! R21   R(10,53)                1.0847         estimate D2E/DX2                !
 ! R22   R(11,12)                1.3672         estimate D2E/DX2                !
 ! R23   R(11,14)                1.3955         estimate D2E/DX2                !
 ! R24   R(12,13)                1.422          estimate D2E/DX2                !
 ! R25   R(13,54)                1.095          estimate D2E/DX2                !
 ! R26   R(13,55)                1.095          estimate D2E/DX2                !
 ! R27   R(13,56)                1.0943         estimate D2E/DX2                !
 ! R28   R(14,15)                1.3984         estimate D2E/DX2                !
 ! R29   R(14,57)                1.0873         estimate D2E/DX2                !
 ! R30   R(15,58)                1.0874         estimate D2E/DX2                !
 ! R31   R(16,17)                1.4358         estimate D2E/DX2                !
 ! R32   R(16,21)                1.4118         estimate D2E/DX2                !
 ! R33   R(17,18)                1.4027         estimate D2E/DX2                !
 ! R34   R(17,59)                1.0889         estimate D2E/DX2                !
 ! R35   R(18,19)                1.3606         estimate D2E/DX2                !
 ! R36   R(18,60)                1.0817         estimate D2E/DX2                !
 ! R37   R(19,20)                1.3864         estimate D2E/DX2                !
 ! R38   R(19,44)                1.3987         estimate D2E/DX2                !
 ! R39   R(20,21)                1.3632         estimate D2E/DX2                !
 ! R40   R(20,22)                1.3987         estimate D2E/DX2                !
 ! R41   R(21,61)                1.0823         estimate D2E/DX2                !
 ! R42   R(22,23)                1.3605         estimate D2E/DX2                !
 ! R43   R(22,44)                1.3863         estimate D2E/DX2                !
 ! R44   R(23,24)                1.4028         estimate D2E/DX2                !
 ! R45   R(23,62)                1.0817         estimate D2E/DX2                !
 ! R46   R(24,25)                1.4359         estimate D2E/DX2                !
 ! R47   R(24,63)                1.0889         estimate D2E/DX2                !
 ! R48   R(25,26)                1.449          estimate D2E/DX2                !
 ! R49   R(25,43)                1.4119         estimate D2E/DX2                !
 ! R50   R(26,27)                1.4429         estimate D2E/DX2                !
 ! R51   R(26,35)                1.4427         estimate D2E/DX2                !
 ! R52   R(27,28)                1.4053         estimate D2E/DX2                !
 ! R53   R(27,34)                1.4036         estimate D2E/DX2                !
 ! R54   R(28,29)                1.4011         estimate D2E/DX2                !
 ! R55   R(28,64)                1.0879         estimate D2E/DX2                !
 ! R56   R(29,30)                1.3935         estimate D2E/DX2                !
 ! R57   R(29,65)                1.0846         estimate D2E/DX2                !
 ! R58   R(30,31)                1.3672         estimate D2E/DX2                !
 ! R59   R(30,33)                1.3955         estimate D2E/DX2                !
 ! R60   R(31,32)                1.422          estimate D2E/DX2                !
 ! R61   R(32,66)                1.0943         estimate D2E/DX2                !
 ! R62   R(32,67)                1.095          estimate D2E/DX2                !
 ! R63   R(32,68)                1.095          estimate D2E/DX2                !
 ! R64   R(33,34)                1.3984         estimate D2E/DX2                !
 ! R65   R(33,69)                1.0873         estimate D2E/DX2                !
 ! R66   R(34,70)                1.0873         estimate D2E/DX2                !
 ! R67   R(35,36)                1.4035         estimate D2E/DX2                !
 ! R68   R(35,42)                1.4054         estimate D2E/DX2                !
 ! R69   R(36,37)                1.3984         estimate D2E/DX2                !
 ! R70   R(36,71)                1.0873         estimate D2E/DX2                !
 ! R71   R(37,38)                1.3955         estimate D2E/DX2                !
 ! R72   R(37,72)                1.0873         estimate D2E/DX2                !
 ! R73   R(38,39)                1.3672         estimate D2E/DX2                !
 ! R74   R(38,41)                1.3935         estimate D2E/DX2                !
 ! R75   R(39,40)                1.422          estimate D2E/DX2                !
 ! R76   R(40,73)                1.095          estimate D2E/DX2                !
 ! R77   R(40,74)                1.095          estimate D2E/DX2                !
 ! R78   R(40,75)                1.0943         estimate D2E/DX2                !
 ! R79   R(41,42)                1.4011         estimate D2E/DX2                !
 ! R80   R(41,76)                1.0846         estimate D2E/DX2                !
 ! R81   R(42,77)                1.0879         estimate D2E/DX2                !
 ! R82   R(43,44)                1.3633         estimate D2E/DX2                !
 ! R83   R(43,78)                1.0822         estimate D2E/DX2                !
 ! R84   R(45,46)                1.4012         estimate D2E/DX2                !
 ! R85   R(45,79)                1.0878         estimate D2E/DX2                !
 ! R86   R(46,80)                1.0846         estimate D2E/DX2                !
 ! A1    A(2,1,47)             111.1488         estimate D2E/DX2                !
 ! A2    A(2,1,48)             107.7837         estimate D2E/DX2                !
 ! A3    A(2,1,49)             111.1239         estimate D2E/DX2                !
 ! A4    A(47,1,48)            107.6963         estimate D2E/DX2                !
 ! A5    A(47,1,49)            111.2069         estimate D2E/DX2                !
 ! A6    A(48,1,49)            107.694          estimate D2E/DX2                !
 ! A7    A(1,2,3)              116.8574         estimate D2E/DX2                !
 ! A8    A(2,3,4)              114.7551         estimate D2E/DX2                !
 ! A9    A(2,3,46)             126.1146         estimate D2E/DX2                !
 ! A10   A(4,3,46)             119.1303         estimate D2E/DX2                !
 ! A11   A(3,4,5)              120.7424         estimate D2E/DX2                !
 ! A12   A(3,4,50)             119.7199         estimate D2E/DX2                !
 ! A13   A(5,4,50)             119.5372         estimate D2E/DX2                !
 ! A14   A(4,5,6)              120.8376         estimate D2E/DX2                !
 ! A15   A(4,5,51)             118.7441         estimate D2E/DX2                !
 ! A16   A(6,5,51)             120.4081         estimate D2E/DX2                !
 ! A17   A(5,6,7)              121.1228         estimate D2E/DX2                !
 ! A18   A(5,6,45)             117.8328         estimate D2E/DX2                !
 ! A19   A(7,6,45)             121.0443         estimate D2E/DX2                !
 ! A20   A(6,7,8)              120.1551         estimate D2E/DX2                !
 ! A21   A(6,7,16)             119.9908         estimate D2E/DX2                !
 ! A22   A(8,7,16)             119.8516         estimate D2E/DX2                !
 ! A23   A(7,8,9)              121.0087         estimate D2E/DX2                !
 ! A24   A(7,8,15)             121.1343         estimate D2E/DX2                !
 ! A25   A(9,8,15)             117.857          estimate D2E/DX2                !
 ! A26   A(8,9,10)             121.2671         estimate D2E/DX2                !
 ! A27   A(8,9,52)             120.0671         estimate D2E/DX2                !
 ! A28   A(10,9,52)            118.6563         estimate D2E/DX2                !
 ! A29   A(9,10,11)            120.1736         estimate D2E/DX2                !
 ! A30   A(9,10,53)            117.8775         estimate D2E/DX2                !
 ! A31   A(11,10,53)           121.9485         estimate D2E/DX2                !
 ! A32   A(10,11,12)           126.1111         estimate D2E/DX2                !
 ! A33   A(10,11,14)           119.1373         estimate D2E/DX2                !
 ! A34   A(12,11,14)           114.7516         estimate D2E/DX2                !
 ! A35   A(11,12,13)           116.8562         estimate D2E/DX2                !
 ! A36   A(12,13,54)           111.1224         estimate D2E/DX2                !
 ! A37   A(12,13,55)           111.1492         estimate D2E/DX2                !
 ! A38   A(12,13,56)           107.783          estimate D2E/DX2                !
 ! A39   A(54,13,55)           111.2077         estimate D2E/DX2                !
 ! A40   A(54,13,56)           107.6944         estimate D2E/DX2                !
 ! A41   A(55,13,56)           107.6969         estimate D2E/DX2                !
 ! A42   A(11,14,15)           120.7401         estimate D2E/DX2                !
 ! A43   A(11,14,57)           119.7197         estimate D2E/DX2                !
 ! A44   A(15,14,57)           119.5396         estimate D2E/DX2                !
 ! A45   A(8,15,14)            120.8249         estimate D2E/DX2                !
 ! A46   A(8,15,58)            120.3813         estimate D2E/DX2                !
 ! A47   A(14,15,58)           118.7828         estimate D2E/DX2                !
 ! A48   A(7,16,17)            120.0118         estimate D2E/DX2                !
 ! A49   A(7,16,21)            120.3029         estimate D2E/DX2                !
 ! A50   A(17,16,21)           119.6852         estimate D2E/DX2                !
 ! A51   A(16,17,18)           122.3241         estimate D2E/DX2                !
 ! A52   A(16,17,59)           119.3005         estimate D2E/DX2                !
 ! A53   A(18,17,59)           118.3672         estimate D2E/DX2                !
 ! A54   A(17,18,19)           115.1828         estimate D2E/DX2                !
 ! A55   A(17,18,60)           122.096          estimate D2E/DX2                !
 ! A56   A(19,18,60)           122.7208         estimate D2E/DX2                !
 ! A57   A(18,19,20)           123.3187         estimate D2E/DX2                !
 ! A58   A(18,19,44)           146.6904         estimate D2E/DX2                !
 ! A59   A(20,19,44)            89.9908         estimate D2E/DX2                !
 ! A60   A(19,20,21)           123.4575         estimate D2E/DX2                !
 ! A61   A(19,20,22)            90.0068         estimate D2E/DX2                !
 ! A62   A(21,20,22)           146.535          estimate D2E/DX2                !
 ! A63   A(16,21,20)           116.0315         estimate D2E/DX2                !
 ! A64   A(16,21,61)           122.3296         estimate D2E/DX2                !
 ! A65   A(20,21,61)           121.6298         estimate D2E/DX2                !
 ! A66   A(20,22,23)           146.6962         estimate D2E/DX2                !
 ! A67   A(20,22,44)            89.9936         estimate D2E/DX2                !
 ! A68   A(23,22,44)           123.3102         estimate D2E/DX2                !
 ! A69   A(22,23,24)           115.1816         estimate D2E/DX2                !
 ! A70   A(22,23,62)           122.7236         estimate D2E/DX2                !
 ! A71   A(24,23,62)           122.0945         estimate D2E/DX2                !
 ! A72   A(23,24,25)           122.3463         estimate D2E/DX2                !
 ! A73   A(23,24,63)           118.332          estimate D2E/DX2                !
 ! A74   A(25,24,63)           119.3135         estimate D2E/DX2                !
 ! A75   A(24,25,26)           120.0199         estimate D2E/DX2                !
 ! A76   A(24,25,43)           119.6494         estimate D2E/DX2                !
 ! A77   A(26,25,43)           120.3307         estimate D2E/DX2                !
 ! A78   A(25,26,27)           119.9306         estimate D2E/DX2                !
 ! A79   A(25,26,35)           120.0036         estimate D2E/DX2                !
 ! A80   A(27,26,35)           120.0633         estimate D2E/DX2                !
 ! A81   A(26,27,28)           121.0553         estimate D2E/DX2                !
 ! A82   A(26,27,34)           121.0782         estimate D2E/DX2                !
 ! A83   A(28,27,34)           117.8664         estimate D2E/DX2                !
 ! A84   A(27,28,29)           121.2619         estimate D2E/DX2                !
 ! A85   A(27,28,64)           120.0501         estimate D2E/DX2                !
 ! A86   A(29,28,64)           118.6767         estimate D2E/DX2                !
 ! A87   A(28,29,30)           120.1731         estimate D2E/DX2                !
 ! A88   A(28,29,65)           117.8817         estimate D2E/DX2                !
 ! A89   A(30,29,65)           121.9446         estimate D2E/DX2                !
 ! A90   A(29,30,31)           126.1119         estimate D2E/DX2                !
 ! A91   A(29,30,33)           119.1392         estimate D2E/DX2                !
 ! A92   A(31,30,33)           114.7489         estimate D2E/DX2                !
 ! A93   A(30,31,32)           116.8634         estimate D2E/DX2                !
 ! A94   A(31,32,66)           107.7841         estimate D2E/DX2                !
 ! A95   A(31,32,67)           111.1287         estimate D2E/DX2                !
 ! A96   A(31,32,68)           111.1418         estimate D2E/DX2                !
 ! A97   A(66,32,67)           107.6957         estimate D2E/DX2                !
 ! A98   A(66,32,68)           107.697          estimate D2E/DX2                !
 ! A99   A(67,32,68)           111.2065         estimate D2E/DX2                !
 ! A100  A(30,33,34)           120.7396         estimate D2E/DX2                !
 ! A101  A(30,33,69)           119.7187         estimate D2E/DX2                !
 ! A102  A(34,33,69)           119.5414         estimate D2E/DX2                !
 ! A103  A(27,34,33)           120.8196         estimate D2E/DX2                !
 ! A104  A(27,34,70)           120.3905         estimate D2E/DX2                !
 ! A105  A(33,34,70)           118.7807         estimate D2E/DX2                !
 ! A106  A(26,35,36)           121.1209         estimate D2E/DX2                !
 ! A107  A(26,35,42)           121.0093         estimate D2E/DX2                !
 ! A108  A(36,35,42)           117.8697         estimate D2E/DX2                !
 ! A109  A(35,36,37)           120.8146         estimate D2E/DX2                !
 ! A110  A(35,36,71)           120.3989         estimate D2E/DX2                !
 ! A111  A(37,36,71)           118.777          estimate D2E/DX2                !
 ! A112  A(36,37,38)           120.7428         estimate D2E/DX2                !
 ! A113  A(36,37,72)           119.536          estimate D2E/DX2                !
 ! A114  A(38,37,72)           119.721          estimate D2E/DX2                !
 ! A115  A(37,38,39)           114.7491         estimate D2E/DX2                !
 ! A116  A(37,38,41)           119.14           estimate D2E/DX2                !
 ! A117  A(39,38,41)           126.1109         estimate D2E/DX2                !
 ! A118  A(38,39,40)           116.8713         estimate D2E/DX2                !
 ! A119  A(39,40,73)           111.1319         estimate D2E/DX2                !
 ! A120  A(39,40,74)           111.1379         estimate D2E/DX2                !
 ! A121  A(39,40,75)           107.7855         estimate D2E/DX2                !
 ! A122  A(73,40,74)           111.2048         estimate D2E/DX2                !
 ! A123  A(73,40,75)           107.6966         estimate D2E/DX2                !
 ! A124  A(74,40,75)           107.6973         estimate D2E/DX2                !
 ! A125  A(38,41,42)           120.1694         estimate D2E/DX2                !
 ! A126  A(38,41,76)           121.9417         estimate D2E/DX2                !
 ! A127  A(42,41,76)           117.8885         estimate D2E/DX2                !
 ! A128  A(35,42,41)           121.2633         estimate D2E/DX2                !
 ! A129  A(35,42,77)           120.0354         estimate D2E/DX2                !
 ! A130  A(41,42,77)           118.6905         estimate D2E/DX2                !
 ! A131  A(25,43,44)           116.049          estimate D2E/DX2                !
 ! A132  A(25,43,78)           122.3591         estimate D2E/DX2                !
 ! A133  A(44,43,78)           121.5834         estimate D2E/DX2                !
 ! A134  A(19,44,22)            90.0084         estimate D2E/DX2                !
 ! A135  A(19,44,43)           146.5278         estimate D2E/DX2                !
 ! A136  A(22,44,43)           123.4632         estimate D2E/DX2                !
 ! A137  A(6,45,46)            121.2813         estimate D2E/DX2                !
 ! A138  A(6,45,79)            120.0622         estimate D2E/DX2                !
 ! A139  A(46,45,79)           118.6472         estimate D2E/DX2                !
 ! A140  A(3,46,45)            120.1755         estimate D2E/DX2                !
 ! A141  A(3,46,80)            121.9455         estimate D2E/DX2                !
 ! A142  A(45,46,80)           117.8786         estimate D2E/DX2                !
 ! D1    D(47,1,2,3)            61.8887         estimate D2E/DX2                !
 ! D2    D(48,1,2,3)           179.6871         estimate D2E/DX2                !
 ! D3    D(49,1,2,3)           -62.5315         estimate D2E/DX2                !
 ! D4    D(1,2,3,4)           -179.5166         estimate D2E/DX2                !
 ! D5    D(1,2,3,46)             0.5144         estimate D2E/DX2                !
 ! D6    D(2,3,4,5)           -179.9814         estimate D2E/DX2                !
 ! D7    D(2,3,4,50)             0.2798         estimate D2E/DX2                !
 ! D8    D(46,3,4,5)            -0.0101         estimate D2E/DX2                !
 ! D9    D(46,3,4,50)         -179.7488         estimate D2E/DX2                !
 ! D10   D(2,3,46,45)         -179.9856         estimate D2E/DX2                !
 ! D11   D(2,3,46,80)            0.2326         estimate D2E/DX2                !
 ! D12   D(4,3,46,45)            0.0466         estimate D2E/DX2                !
 ! D13   D(4,3,46,80)         -179.7352         estimate D2E/DX2                !
 ! D14   D(3,4,5,6)             -0.0281         estimate D2E/DX2                !
 ! D15   D(3,4,5,51)          -178.8745         estimate D2E/DX2                !
 ! D16   D(50,4,5,6)           179.7112         estimate D2E/DX2                !
 ! D17   D(50,4,5,51)            0.8647         estimate D2E/DX2                !
 ! D18   D(4,5,6,7)            179.9675         estimate D2E/DX2                !
 ! D19   D(4,5,6,45)             0.0285         estimate D2E/DX2                !
 ! D20   D(51,5,6,7)            -1.2052         estimate D2E/DX2                !
 ! D21   D(51,5,6,45)          178.8558         estimate D2E/DX2                !
 ! D22   D(5,6,7,8)            139.819          estimate D2E/DX2                !
 ! D23   D(5,6,7,16)           -39.6022         estimate D2E/DX2                !
 ! D24   D(45,6,7,8)           -40.244          estimate D2E/DX2                !
 ! D25   D(45,6,7,16)          140.3348         estimate D2E/DX2                !
 ! D26   D(5,6,45,46)            0.0083         estimate D2E/DX2                !
 ! D27   D(5,6,45,79)          178.8863         estimate D2E/DX2                !
 ! D28   D(7,6,45,46)         -179.9307         estimate D2E/DX2                !
 ! D29   D(7,6,45,79)           -1.0527         estimate D2E/DX2                !
 ! D30   D(6,7,8,9)            139.9327         estimate D2E/DX2                !
 ! D31   D(6,7,8,15)           -40.1194         estimate D2E/DX2                !
 ! D32   D(16,7,8,9)           -40.6454         estimate D2E/DX2                !
 ! D33   D(16,7,8,15)          139.3025         estimate D2E/DX2                !
 ! D34   D(6,7,16,17)          -41.5187         estimate D2E/DX2                !
 ! D35   D(6,7,16,21)          138.6118         estimate D2E/DX2                !
 ! D36   D(8,7,16,17)          139.0584         estimate D2E/DX2                !
 ! D37   D(8,7,16,21)          -40.8111         estimate D2E/DX2                !
 ! D38   D(7,8,9,10)           179.9839         estimate D2E/DX2                !
 ! D39   D(7,8,9,52)            -1.1496         estimate D2E/DX2                !
 ! D40   D(15,8,9,10)            0.0343         estimate D2E/DX2                !
 ! D41   D(15,8,9,52)          178.9009         estimate D2E/DX2                !
 ! D42   D(7,8,15,14)         -179.9437         estimate D2E/DX2                !
 ! D43   D(7,8,15,58)           -1.1661         estimate D2E/DX2                !
 ! D44   D(9,8,15,14)            0.0058         estimate D2E/DX2                !
 ! D45   D(9,8,15,58)          178.7834         estimate D2E/DX2                !
 ! D46   D(8,9,10,11)           -0.0603         estimate D2E/DX2                !
 ! D47   D(8,9,10,53)          179.7287         estimate D2E/DX2                !
 ! D48   D(52,9,10,11)        -178.9424         estimate D2E/DX2                !
 ! D49   D(52,9,10,53)           0.8466         estimate D2E/DX2                !
 ! D50   D(9,10,11,12)        -179.9866         estimate D2E/DX2                !
 ! D51   D(9,10,11,14)           0.0446         estimate D2E/DX2                !
 ! D52   D(53,10,11,12)          0.2332         estimate D2E/DX2                !
 ! D53   D(53,10,11,14)       -179.7356         estimate D2E/DX2                !
 ! D54   D(10,11,12,13)          0.6041         estimate D2E/DX2                !
 ! D55   D(14,11,12,13)       -179.426          estimate D2E/DX2                !
 ! D56   D(10,11,14,15)         -0.0049         estimate D2E/DX2                !
 ! D57   D(10,11,14,57)       -179.7136         estimate D2E/DX2                !
 ! D58   D(12,11,14,15)       -179.9771         estimate D2E/DX2                !
 ! D59   D(12,11,14,57)          0.3142         estimate D2E/DX2                !
 ! D60   D(11,12,13,54)        -62.5771         estimate D2E/DX2                !
 ! D61   D(11,12,13,55)         61.8434         estimate D2E/DX2                !
 ! D62   D(11,12,13,56)        179.6423         estimate D2E/DX2                !
 ! D63   D(11,14,15,8)          -0.0205         estimate D2E/DX2                !
 ! D64   D(11,14,15,58)       -178.8173         estimate D2E/DX2                !
 ! D65   D(57,14,15,8)         179.6887         estimate D2E/DX2                !
 ! D66   D(57,14,15,58)          0.892          estimate D2E/DX2                !
 ! D67   D(7,16,17,18)        -179.9382         estimate D2E/DX2                !
 ! D68   D(7,16,17,59)          -0.9926         estimate D2E/DX2                !
 ! D69   D(21,16,17,18)         -0.0679         estimate D2E/DX2                !
 ! D70   D(21,16,17,59)        178.8777         estimate D2E/DX2                !
 ! D71   D(7,16,21,20)         179.9003         estimate D2E/DX2                !
 ! D72   D(7,16,21,61)          -1.1784         estimate D2E/DX2                !
 ! D73   D(17,16,21,20)          0.0304         estimate D2E/DX2                !
 ! D74   D(17,16,21,61)        178.9516         estimate D2E/DX2                !
 ! D75   D(16,17,18,19)          0.029          estimate D2E/DX2                !
 ! D76   D(16,17,18,60)        179.8137         estimate D2E/DX2                !
 ! D77   D(59,17,18,19)       -178.9261         estimate D2E/DX2                !
 ! D78   D(59,17,18,60)          0.8587         estimate D2E/DX2                !
 ! D79   D(17,18,19,20)          0.0454         estimate D2E/DX2                !
 ! D80   D(17,18,19,44)       -179.9881         estimate D2E/DX2                !
 ! D81   D(60,18,19,20)       -179.7378         estimate D2E/DX2                !
 ! D82   D(60,18,19,44)          0.2287         estimate D2E/DX2                !
 ! D83   D(18,19,20,21)         -0.0858         estimate D2E/DX2                !
 ! D84   D(18,19,20,22)       -179.8692         estimate D2E/DX2                !
 ! D85   D(44,19,20,21)        179.9327         estimate D2E/DX2                !
 ! D86   D(44,19,20,22)          0.1492         estimate D2E/DX2                !
 ! D87   D(18,19,44,22)        179.8775         estimate D2E/DX2                !
 ! D88   D(18,19,44,43)          0.2093         estimate D2E/DX2                !
 ! D89   D(20,19,44,22)         -0.1505         estimate D2E/DX2                !
 ! D90   D(20,19,44,43)       -179.8187         estimate D2E/DX2                !
 ! D91   D(19,20,21,16)          0.0426         estimate D2E/DX2                !
 ! D92   D(19,20,21,61)       -178.8869         estimate D2E/DX2                !
 ! D93   D(22,20,21,16)        179.6499         estimate D2E/DX2                !
 ! D94   D(22,20,21,61)          0.7205         estimate D2E/DX2                !
 ! D95   D(19,20,22,23)        179.8909         estimate D2E/DX2                !
 ! D96   D(19,20,22,44)         -0.1505         estimate D2E/DX2                !
 ! D97   D(21,20,22,23)          0.2184         estimate D2E/DX2                !
 ! D98   D(21,20,22,44)       -179.8229         estimate D2E/DX2                !
 ! D99   D(20,22,23,24)       -179.9999         estimate D2E/DX2                !
 ! D100  D(20,22,23,62)          0.208          estimate D2E/DX2                !
 ! D101  D(44,22,23,24)          0.0496         estimate D2E/DX2                !
 ! D102  D(44,22,23,62)       -179.7425         estimate D2E/DX2                !
 ! D103  D(20,22,44,19)          0.1492         estimate D2E/DX2                !
 ! D104  D(20,22,44,43)        179.9298         estimate D2E/DX2                !
 ! D105  D(23,22,44,19)       -179.878          estimate D2E/DX2                !
 ! D106  D(23,22,44,43)         -0.0974         estimate D2E/DX2                !
 ! D107  D(22,23,24,25)          0.0484         estimate D2E/DX2                !
 ! D108  D(22,23,24,63)       -178.9049         estimate D2E/DX2                !
 ! D109  D(62,23,24,25)        179.842          estimate D2E/DX2                !
 ! D110  D(62,23,24,63)          0.8886         estimate D2E/DX2                !
 ! D111  D(23,24,25,26)        179.9556         estimate D2E/DX2                !
 ! D112  D(23,24,25,43)         -0.1043         estimate D2E/DX2                !
 ! D113  D(63,24,25,26)         -1.1009         estimate D2E/DX2                !
 ! D114  D(63,24,25,43)        178.8391         estimate D2E/DX2                !
 ! D115  D(24,25,26,27)        139.7344         estimate D2E/DX2                !
 ! D116  D(24,25,26,35)        -40.8375         estimate D2E/DX2                !
 ! D117  D(43,25,26,27)        -40.2052         estimate D2E/DX2                !
 ! D118  D(43,25,26,35)        139.2228         estimate D2E/DX2                !
 ! D119  D(24,25,43,44)          0.0581         estimate D2E/DX2                !
 ! D120  D(24,25,43,78)        179.012          estimate D2E/DX2                !
 ! D121  D(26,25,43,44)        179.998          estimate D2E/DX2                !
 ! D122  D(26,25,43,78)         -1.0481         estimate D2E/DX2                !
 ! D123  D(25,26,27,28)        139.1514         estimate D2E/DX2                !
 ! D124  D(25,26,27,34)        -40.8055         estimate D2E/DX2                !
 ! D125  D(35,26,27,28)        -40.2763         estimate D2E/DX2                !
 ! D126  D(35,26,27,34)        139.7668         estimate D2E/DX2                !
 ! D127  D(25,26,35,36)        -40.2314         estimate D2E/DX2                !
 ! D128  D(25,26,35,42)        139.7494         estimate D2E/DX2                !
 ! D129  D(27,26,35,36)        139.1959         estimate D2E/DX2                !
 ! D130  D(27,26,35,42)        -40.8234         estimate D2E/DX2                !
 ! D131  D(26,27,28,29)       -179.9184         estimate D2E/DX2                !
 ! D132  D(26,27,28,64)         -1.1614         estimate D2E/DX2                !
 ! D133  D(34,27,28,29)          0.0399         estimate D2E/DX2                !
 ! D134  D(34,27,28,64)        178.7969         estimate D2E/DX2                !
 ! D135  D(26,27,34,33)        179.992          estimate D2E/DX2                !
 ! D136  D(26,27,34,70)         -1.1241         estimate D2E/DX2                !
 ! D137  D(28,27,34,33)          0.0337         estimate D2E/DX2                !
 ! D138  D(28,27,34,70)        178.9176         estimate D2E/DX2                !
 ! D139  D(27,28,29,30)         -0.0697         estimate D2E/DX2                !
 ! D140  D(27,28,29,65)        179.6803         estimate D2E/DX2                !
 ! D141  D(64,28,29,30)       -178.8434         estimate D2E/DX2                !
 ! D142  D(64,28,29,65)          0.9066         estimate D2E/DX2                !
 ! D143  D(28,29,30,31)       -179.9671         estimate D2E/DX2                !
 ! D144  D(28,29,30,33)          0.0247         estimate D2E/DX2                !
 ! D145  D(65,29,30,31)          0.2933         estimate D2E/DX2                !
 ! D146  D(65,29,30,33)       -179.7149         estimate D2E/DX2                !
 ! D147  D(29,30,31,32)         -0.4578         estimate D2E/DX2                !
 ! D148  D(33,30,31,32)        179.5501         estimate D2E/DX2                !
 ! D149  D(29,30,33,34)          0.0485         estimate D2E/DX2                !
 ! D150  D(29,30,33,69)       -179.7837         estimate D2E/DX2                !
 ! D151  D(31,30,33,34)       -179.9588         estimate D2E/DX2                !
 ! D152  D(31,30,33,69)          0.209          estimate D2E/DX2                !
 ! D153  D(30,31,32,66)       -179.801          estimate D2E/DX2                !
 ! D154  D(30,31,32,67)         62.4125         estimate D2E/DX2                !
 ! D155  D(30,31,32,68)        -62.0056         estimate D2E/DX2                !
 ! D156  D(30,33,34,27)         -0.0787         estimate D2E/DX2                !
 ! D157  D(30,33,34,70)       -178.9803         estimate D2E/DX2                !
 ! D158  D(69,33,34,27)        179.7539         estimate D2E/DX2                !
 ! D159  D(69,33,34,70)          0.8523         estimate D2E/DX2                !
 ! D160  D(26,35,36,37)       -179.9857         estimate D2E/DX2                !
 ! D161  D(26,35,36,71)         -1.1181         estimate D2E/DX2                !
 ! D162  D(42,35,36,37)          0.0329         estimate D2E/DX2                !
 ! D163  D(42,35,36,71)        178.9006         estimate D2E/DX2                !
 ! D164  D(26,35,42,41)       -179.9417         estimate D2E/DX2                !
 ! D165  D(26,35,42,77)         -1.1466         estimate D2E/DX2                !
 ! D166  D(36,35,42,41)          0.0396         estimate D2E/DX2                !
 ! D167  D(36,35,42,77)        178.8347         estimate D2E/DX2                !
 ! D168  D(35,36,37,38)         -0.075          estimate D2E/DX2                !
 ! D169  D(35,36,37,72)        179.7357         estimate D2E/DX2                !
 ! D170  D(71,36,37,38)       -178.9607         estimate D2E/DX2                !
 ! D171  D(71,36,37,72)          0.85           estimate D2E/DX2                !
 ! D172  D(36,37,38,39)       -179.9592         estimate D2E/DX2                !
 ! D173  D(36,37,38,41)          0.0429         estimate D2E/DX2                !
 ! D174  D(72,37,38,39)          0.2305         estimate D2E/DX2                !
 ! D175  D(72,37,38,41)       -179.7674         estimate D2E/DX2                !
 ! D176  D(37,38,39,40)        179.7151         estimate D2E/DX2                !
 ! D177  D(41,38,39,40)         -0.2872         estimate D2E/DX2                !
 ! D178  D(37,38,41,42)          0.0293         estimate D2E/DX2                !
 ! D179  D(37,38,41,76)       -179.7239         estimate D2E/DX2                !
 ! D180  D(39,38,41,42)       -179.9684         estimate D2E/DX2                !
 ! D181  D(39,38,41,76)          0.2784         estimate D2E/DX2                !
 ! D182  D(38,39,40,73)         62.3171         estimate D2E/DX2                !
 ! D183  D(38,39,40,74)        -62.0983         estimate D2E/DX2                !
 ! D184  D(38,39,40,75)       -179.8927         estimate D2E/DX2                !
 ! D185  D(38,41,42,35)         -0.0714         estimate D2E/DX2                !
 ! D186  D(38,41,42,77)       -178.8823         estimate D2E/DX2                !
 ! D187  D(76,41,42,35)        179.6916         estimate D2E/DX2                !
 ! D188  D(76,41,42,77)          0.8807         estimate D2E/DX2                !
 ! D189  D(25,43,44,19)        179.6396         estimate D2E/DX2                !
 ! D190  D(25,43,44,22)          0.0373         estimate D2E/DX2                !
 ! D191  D(78,43,44,19)          0.6769         estimate D2E/DX2                !
 ! D192  D(78,43,44,22)       -178.9254         estimate D2E/DX2                !
 ! D193  D(6,45,46,3)           -0.0463         estimate D2E/DX2                !
 ! D194  D(6,45,46,80)         179.7443         estimate D2E/DX2                !
 ! D195  D(79,45,46,3)        -178.9398         estimate D2E/DX2                !
 ! D196  D(79,45,46,80)          0.8508         estimate D2E/DX2                !
 --------------------------------------------------------------------------------
 Trust Radius=3.00D-01 FncErr=1.00D-07 GrdErr=1.00D-06 EigMax=2.50D+02 EigMin=1.00D-04
 Number of steps in this run=    434 maximum allowed number of steps=    480.
 GradGradGradGradGradGradGradGradGradGradGradGradGradGradGradGradGradGrad

 Leave Link  103 at Fri Jun  5 17:01:39 2026, MaxMem=  2516582400 cpu:               0.1 elap:               0.0
 (Enter /apl/gaussian/16c02/g16/l202.exe)
 Stoichiometry    C40H34N2O4
 Framework group  C1[X(C40H34N2O4)]
 Deg. of freedom   234
 Full point group                 C1      NOp   1
 Largest Abelian subgroup         C1      NOp   1
 Largest concise Abelian subgroup C1      NOp   1
                         Standard orientation:                         
 ---------------------------------------------------------------------
 Center     Atomic      Atomic             Coordinates (Angstroms)
 Number     Number       Type             X           Y           Z
 ---------------------------------------------------------------------
      1          6           0       -9.163659   -3.899963   -2.600877
      2          8           0       -7.879692   -3.508724   -3.070304
      3          6           0       -7.156910   -2.671501   -2.266612
      4          6           0       -5.909077   -2.307374   -2.774108
      5          6           0       -5.065546   -1.455250   -2.054298
      6          6           0       -5.453378   -0.945518   -0.805304
      7          7           0       -4.587721   -0.066518   -0.057130
      8          6           0       -5.138496    1.065576    0.647950
      9          6           0       -4.668670    1.422566    1.923486
     10          6           0       -5.199330    2.520930    2.612817
     11          6           0       -6.211898    3.286147    2.037631
     12          8           0       -6.814499    4.377714    2.598579
     13          6           0       -6.355284    4.775075    3.884397
     14          6           0       -6.687266    2.942622    0.771373
     15          6           0       -6.158973    1.846091    0.082765
     16          6           0       -3.160359   -0.312536   -0.022984
     17          6           0       -2.665842   -1.653148    0.117318
     18          6           0       -1.294694   -1.946496    0.157240
     19          6           0       -0.469086   -0.869948    0.054126
     20          6           0       -0.927790    0.431409   -0.080388
     21          6           0       -2.249718    0.761590   -0.124394
     22          6           0        0.392015    0.892572   -0.121222
     23          6           0        1.217754    1.968542   -0.228314
     24          6           0        2.588925    1.674727   -0.190700
     25          6           0        3.083797    0.334104   -0.050309
     26          7           0        4.511342    0.087969   -0.018263
     27          6           0        5.053464   -0.886724    0.897147
     28          6           0        6.079811   -1.761158    0.500962
     29          6           0        6.608247   -2.710398    1.385778
     30          6           0        6.119989   -2.802497    2.687654
     31          8           0        6.544945   -3.678458    3.647542
     32          6           0        7.575539   -4.585980    3.278319
     33          6           0        5.101491   -1.939412    3.094054
     34          6           0        4.572237   -0.992637    2.211399
     35          6           0        5.387756    0.808151   -0.909614
     36          6           0        5.022475    1.057100   -2.241712
     37          6           0        5.877152    1.755640   -3.100309
     38          6           0        7.113170    2.222972   -2.651612
     39          8           0        7.848584    2.889724   -3.591733
     40          6           0        9.114146    3.391161   -3.180786
     41          6           0        7.490228    1.984469   -1.331497
     42          6           0        6.635408    1.283395   -0.470728
     43          6           0        2.172676   -0.739052    0.057232
     44          6           0        0.850693   -0.408358    0.016908
     45          6           0       -6.712498   -1.320227   -0.305934
     46          6           0       -7.556533   -2.174677   -1.027645
     47          1           0       -9.822708   -3.033244   -2.484364
     48          1           0       -9.608766   -4.557448   -3.353893
     49          1           0       -9.086571   -4.467284   -1.667454
     50          1           0       -5.589310   -2.686185   -3.741806
     51          1           0       -4.108155   -1.177873   -2.488709
     52          1           0       -3.891099    0.831857    2.402921
     53          1           0       -4.799051    2.744343    3.595851
     54          1           0       -6.535676    3.991242    4.627449
     55          1           0       -5.297892    5.058354    3.856156
     56          1           0       -6.928083    5.657362    4.185913
     57          1           0       -7.473894    3.535970    0.311675
     58          1           0       -6.539370    1.618667   -0.910166
     59          1           0       -3.373758   -2.474956    0.213508
     60          1           0       -0.926198   -2.957662    0.266026
     61          1           0       -2.574946    1.786408   -0.248021
     62          1           0        0.849417    2.980317   -0.331700
     63          1           0        3.296246    2.500207   -0.254058
     64          1           0        6.465747   -1.723175   -0.515448
     65          1           0        7.395480   -3.361133    1.020727
     66          1           0        7.795804   -5.213179    4.147539
     67          1           0        8.493968   -4.052828    3.011264
     68          1           0        7.249609   -5.244695    2.466546
     69          1           0        4.715933   -2.000709    4.108832
     70          1           0        3.791063   -0.324950    2.566614
     71          1           0        4.074325    0.692558   -2.629559
     72          1           0        5.575068    1.933151   -4.129624
     73          1           0        9.782134    2.577572   -2.879190
     74          1           0        9.004952    4.131085   -2.380981
     75          1           0        9.569219    3.894187   -4.039455
     76          1           0        8.438093    2.330785   -0.933945
     77          1           0        6.945844    1.126721    0.560078
     78          1           0        2.497167   -1.767430    0.148873
     79          1           0       -7.041993   -0.960913    0.666551
     80          1           0       -8.514452   -2.431232   -0.588307
 ---------------------------------------------------------------------
 Rotational constants (GHZ):           0.0873329           0.0228562           0.0219297
 Leave Link  202 at Fri Jun  5 17:01:39 2026, MaxMem=  2516582400 cpu:               0.0 elap:               0.0
 (Enter /apl/gaussian/16c02/g16/l301.exe)
 Standard basis: 6-31G(d) (6D, 7F)
 Ernie: Thresh=  0.10000D-02 Tol=  0.10000D-05 Strict=F.
 There are   758 symmetry adapted cartesian basis functions of A   symmetry.
 There are   758 symmetry adapted basis functions of A   symmetry.
   758 basis functions,  1424 primitive gaussians,   758 cartesian basis functions
   160 alpha electrons      160 beta electrons
       nuclear repulsion energy      4864.6049813980 Hartrees.
 IExCor=  402 DFT=T Ex+Corr=B3LYP ExCW=0 ScaHFX=  0.200000
 ScaDFX=  0.800000  0.720000  1.000000  0.810000 ScalE2=  1.000000  1.000000
 IRadAn=      5 IRanWt=     -1 IRanGd=            0 ICorTp=0 IEmpDi=  4
 NAtoms=   80 NActive=   80 NUniq=   80 SFac= 1.00D+00 NAtFMM=   60 NAOKFM=T Big=T
 Integral buffers will be    131072 words long.
 Raffenetti 2 integral format.
 Two-electron integral symmetry is turned on.
 Leave Link  301 at Fri Jun  5 17:01:40 2026, MaxMem=  2516582400 cpu:               0.1 elap:               0.0
 (Enter /apl/gaussian/16c02/g16/l302.exe)
 NPDir=0 NMtPBC=     1 NCelOv=     1 NCel=       1 NClECP=     1 NCelD=      1
         NCelK=      1 NCelE2=     1 NClLst=     1 CellRange=     0.0.
 One-electron integrals computed using PRISM.
 One-electron integral symmetry used in STVInt
 NBasis=   758 RedAO= T EigKep=  8.88D-05  NBF=   758
 NBsUse=   758 1.00D-06 EigRej= -1.00D+00 NBFU=   758
 Precomputing XC quadrature grid using
 IXCGrd= 4 IRadAn=           5 IRanWt=          -1 IRanGd=           0 AccXCQ= 0.00D+00.
 Generated NRdTot=       0 NPtTot=           0 NUsed=           0 NTot=          32
 NSgBfM=   690   689   689   689   690 MxSgAt=    80 MxSgA2=    80.
 Leave Link  302 at Fri Jun  5 17:01:41 2026, MaxMem=  2516582400 cpu:              10.2 elap:               1.0
 (Enter /apl/gaussian/16c02/g16/l303.exe)
 DipDrv:  MaxL=1.
 Leave Link  303 at Fri Jun  5 17:01:41 2026, MaxMem=  2516582400 cpu:               0.2 elap:               0.1
 (Enter /apl/gaussian/16c02/g16/l401.exe)
 ExpMin= 1.61D-01 ExpMax= 5.48D+03 ExpMxC= 8.25D+02 IAcc=3 IRadAn=         5 AccDes= 0.00D+00
 Harris functional with IExCor=  402 and IRadAn=       5 diagonalized for initial guess.
 HarFok:  IExCor=  402 AccDes= 0.00D+00 IRadAn=         5 IDoV= 1 UseB2=F ITyADJ=14
 ICtDFT=  3500011 ScaDFX=  1.000000  1.000000  1.000000  1.000000
 FoFCou: FMM=F IPFlag=           0 FMFlag=      100000 FMFlg1=        2001
         NFxFlg=           0 DoJE=T BraDBF=F KetDBF=T FulRan=T
         wScrn=  0.000000 ICntrl=       500 IOpCl=  0 I1Cent=   200000004 NGrid=           0
         NMat0=    1 NMatS0=      1 NMatT0=    0 NMatD0=    1 NMtDS0=    0 NMtDT0=    0
 Petite list used in FoFCou.
 Harris En= -1954.98347159600    
 JPrj=0 DoOrth=F DoCkMO=F.
 Leave Link  401 at Fri Jun  5 17:01:44 2026, MaxMem=  2516582400 cpu:              44.7 elap:               3.1
 (Enter /apl/gaussian/16c02/g16/l502.exe)
 Integral symmetry usage will be decided dynamically.
 Closed shell SCF:
 Using DIIS extrapolation, IDIIS=  1040.
 NGot=  2516582400 LenX=  2515411100 LenY=  2514835778
 Requested convergence on RMS density matrix=1.00D-08 within 128 cycles.
 Requested convergence on MAX density matrix=1.00D-06.
 Requested convergence on             energy=1.00D-06.
 No special actions if energy rises.
 Fock matrices will be formed incrementally for  20 cycles.
 Integral accuracy reduced to 1.0D-05 until final iterations.

 Cycle   1  Pass 0  IDiag  1:
 FoFJK:  IHMeth= 1 ICntrl=       0 DoSepK=F KAlg= 0 I1Cent=           0 FoldK=F
 IRaf= 630000000 NMat=       1 IRICut=       1 DoRegI=T DoRafI=F ISym2E= 0 IDoP0=0 IntGTp=1.
 FoFCou: FMM=T IPFlag=           0 FMFlag=      100000 FMFlg1=        2001
         NFxFlg=           0 DoJE=F BraDBF=F KetDBF=F FulRan=T
         wScrn=  0.000000 ICntrl=         0 IOpCl=  0 I1Cent=           0 NGrid=           0
         NMat0=    1 NMatS0=      1 NMatT0=    0 NMatD0=    1 NMtDS0=    0 NMtDT0=    0
 Symmetry not used in FoFCou.
 FMM levels:  10  Number of levels for PrismC:   9
 E= -1954.06206537063    
 DIIS: error= 2.96D-02 at cycle   1 NSaved=   1.
 NSaved= 1 IEnMin= 1 EnMin= -1954.06206537063     IErMin= 1 ErrMin= 2.96D-02
 ErrMax= 2.96D-02  0.00D+00 EMaxC= 1.00D-01 BMatC= 8.82D-01 BMatP= 8.82D-01
 IDIUse=3 WtCom= 7.04D-01 WtEn= 2.96D-01
 Coeff-Com:  0.100D+01
 Coeff-En:   0.100D+01
 Coeff:      0.100D+01
 Gap=     0.140 Goal=   None    Shift=    0.000
 GapD=    0.140 DampG=1.000 DampE=0.500 DampFc=0.5000 IDamp=-1.
 Damping current iteration by 5.00D-01
 RMSDP=3.18D-03 MaxDP=1.52D-01              OVMax= 3.30D-01

 Cycle   2  Pass 0  IDiag  1:
 RMSU=  1.52D-03    CP:  9.64D-01
 E= -1954.46541090976     Delta-E=       -0.403345539122 Rises=F Damp=T
 DIIS: error= 7.27D-03 at cycle   2 NSaved=   2.
 NSaved= 2 IEnMin= 2 EnMin= -1954.46541090976     IErMin= 2 ErrMin= 7.27D-03
 ErrMax= 7.27D-03  0.00D+00 EMaxC= 1.00D-01 BMatC= 8.46D-02 BMatP= 8.82D-01
 IDIUse=3 WtCom= 9.27D-01 WtEn= 7.27D-02
 Coeff-Com:  0.540D-01 0.946D+00
 Coeff-En:   0.911D-01 0.909D+00
 Coeff:      0.567D-01 0.943D+00
 Gap=     0.115 Goal=   None    Shift=    0.000
 RMSDP=1.47D-03 MaxDP=9.92D-02 DE=-4.03D-01 OVMax= 3.49D-01

 Cycle   3  Pass 0  IDiag  1:
 RMSU=  1.42D-03    CP:  9.35D-01  9.67D-01
 E= -1954.78814981788     Delta-E=       -0.322738908128 Rises=F Damp=F
 DIIS: error= 1.42D-02 at cycle   3 NSaved=   3.
 NSaved= 3 IEnMin= 3 EnMin= -1954.78814981788     IErMin= 2 ErrMin= 7.27D-03
 ErrMax= 1.42D-02  0.00D+00 EMaxC= 1.00D-01 BMatC= 1.85D-01 BMatP= 8.46D-02
 IDIUse=2 WtCom= 0.00D+00 WtEn= 1.00D+00
 Coeff-En:   0.000D+00 0.000D+00 0.100D+01
 Coeff:      0.000D+00 0.000D+00 0.100D+01
 Gap=     0.174 Goal=   None    Shift=    0.000
 RMSDP=2.50D-03 MaxDP=1.62D-01 DE=-3.23D-01 OVMax= 4.63D-01

 Cycle   4  Pass 0  IDiag  1:
 RMSU=  1.23D-03    CP:  9.45D-01  1.49D+00 -4.22D-01
 E= -1953.72839979954     Delta-E=        1.059750018346 Rises=F Damp=F
 DIIS: error= 3.25D-02 at cycle   4 NSaved=   4.
 NSaved= 4 IEnMin= 3 EnMin= -1954.78814981788     IErMin= 2 ErrMin= 7.27D-03
 ErrMax= 3.25D-02  0.00D+00 EMaxC= 1.00D-01 BMatC= 1.17D+00 BMatP= 8.46D-02
 IDIUse=2 WtCom= 0.00D+00 WtEn= 1.00D+00
 Coeff-En:   0.000D+00 0.000D+00 0.802D+00 0.198D+00
 Coeff:      0.000D+00 0.000D+00 0.802D+00 0.198D+00
 Gap=     0.149 Goal=   None    Shift=    0.000
 RMSDP=1.36D-03 MaxDP=9.15D-02 DE= 1.06D+00 OVMax= 2.48D-01

 Cycle   5  Pass 0  IDiag  1:
 RMSU=  3.23D-04    CP:  9.39D-01  1.21D+00  3.18D-01  4.58D-01
 E= -1954.87558973123     Delta-E=       -1.147189931691 Rises=F Damp=F
 DIIS: error= 1.07D-02 at cycle   5 NSaved=   5.
 NSaved= 5 IEnMin= 5 EnMin= -1954.87558973123     IErMin= 2 ErrMin= 7.27D-03
 ErrMax= 1.07D-02  0.00D+00 EMaxC= 1.00D-01 BMatC= 1.07D-01 BMatP= 8.46D-02
 IDIUse=2 WtCom= 0.00D+00 WtEn= 1.00D+00
 Coeff-En:   0.000D+00 0.000D+00 0.399D+00 0.000D+00 0.601D+00
 Coeff:      0.000D+00 0.000D+00 0.399D+00 0.000D+00 0.601D+00
 Gap=     0.110 Goal=   None    Shift=    0.000
 RMSDP=6.26D-04 MaxDP=4.25D-02 DE=-1.15D+00 OVMax= 1.33D-01

 Cycle   6  Pass 0  IDiag  1:
 RMSU=  6.99D-05    CP:  9.38D-01  1.07D+00  6.63D-01  2.14D-01  7.25D-01
 E= -1954.98412304319     Delta-E=       -0.108533311963 Rises=F Damp=F
 DIIS: error= 2.01D-03 at cycle   6 NSaved=   6.
 NSaved= 6 IEnMin= 6 EnMin= -1954.98412304319     IErMin= 6 ErrMin= 2.01D-03
 ErrMax= 2.01D-03  0.00D+00 EMaxC= 1.00D-01 BMatC= 3.47D-03 BMatP= 8.46D-02
 IDIUse=3 WtCom= 9.80D-01 WtEn= 2.01D-02
 Coeff-Com: -0.702D-02 0.346D-02 0.348D-01-0.292D-01 0.261D+00 0.736D+00
 Coeff-En:   0.000D+00 0.000D+00 0.000D+00 0.000D+00 0.542D-02 0.995D+00
 Coeff:     -0.687D-02 0.339D-02 0.341D-01-0.286D-01 0.256D+00 0.742D+00
 Gap=     0.109 Goal=   None    Shift=    0.000
 RMSDP=1.04D-04 MaxDP=7.74D-03 DE=-1.09D-01 OVMax= 2.65D-02

 Cycle   7  Pass 0  IDiag  1:
 RMSU=  3.57D-05    CP:  9.37D-01  1.10D+00  6.17D-01  2.50D-01  8.07D-01
                    CP:  8.86D-01
 E= -1954.98753702668     Delta-E=       -0.003413983483 Rises=F Damp=F
 DIIS: error= 5.69D-04 at cycle   7 NSaved=   7.
 NSaved= 7 IEnMin= 7 EnMin= -1954.98753702668     IErMin= 7 ErrMin= 5.69D-04
 ErrMax= 5.69D-04  0.00D+00 EMaxC= 1.00D-01 BMatC= 1.65D-04 BMatP= 3.47D-03
 IDIUse=3 WtCom= 9.94D-01 WtEn= 5.69D-03
 Coeff-Com: -0.511D-02 0.722D-02 0.738D-02-0.166D-01 0.125D+00 0.446D+00
 Coeff-Com:  0.436D+00
 Coeff-En:   0.000D+00 0.000D+00 0.000D+00 0.000D+00 0.000D+00 0.000D+00
 Coeff-En:   0.100D+01
 Coeff:     -0.508D-02 0.718D-02 0.733D-02-0.165D-01 0.124D+00 0.444D+00
 Coeff:      0.439D+00
 Gap=     0.108 Goal=   None    Shift=    0.000
 RMSDP=2.29D-05 MaxDP=1.66D-03 DE=-3.41D-03 OVMax= 3.62D-03

 Cycle   8  Pass 0  IDiag  1:
 RMSU=  1.17D-05    CP:  9.37D-01  1.10D+00  6.21D-01  2.46D-01  8.15D-01
                    CP:  8.90D-01  5.14D-01
 E= -1954.98769659546     Delta-E=       -0.000159568780 Rises=F Damp=F
 DIIS: error= 6.99D-05 at cycle   8 NSaved=   8.
 NSaved= 8 IEnMin= 8 EnMin= -1954.98769659546     IErMin= 8 ErrMin= 6.99D-05
 ErrMax= 6.99D-05  0.00D+00 EMaxC= 1.00D-01 BMatC= 9.89D-06 BMatP= 1.65D-04
 IDIUse=1 WtCom= 1.00D+00 WtEn= 0.00D+00
 Coeff-Com: -0.200D-02 0.342D-02-0.277D-02-0.429D-02 0.282D-01 0.160D+00
 Coeff-Com:  0.240D+00 0.577D+00
 Coeff:     -0.200D-02 0.342D-02-0.277D-02-0.429D-02 0.282D-01 0.160D+00
 Coeff:      0.240D+00 0.577D+00
 Gap=     0.108 Goal=   None    Shift=    0.000
 RMSDP=6.34D-06 MaxDP=4.27D-04 DE=-1.60D-04 OVMax= 1.03D-03

 Initial convergence to 1.0D-05 achieved.  Increase integral accuracy.
 Cycle   9  Pass 1  IDiag  1:
 E= -1954.98760433710     Delta-E=        0.000092258354 Rises=F Damp=F
 DIIS: error= 4.50D-04 at cycle   1 NSaved=   1.
 NSaved= 1 IEnMin= 1 EnMin= -1954.98760433710     IErMin= 1 ErrMin= 4.50D-04
 ErrMax= 4.50D-04  0.00D+00 EMaxC= 1.00D-01 BMatC= 2.17D-05 BMatP= 2.17D-05
 IDIUse=3 WtCom= 9.96D-01 WtEn= 4.50D-03
 Coeff-Com:  0.100D+01
 Coeff-En:   0.100D+01
 Coeff:      0.100D+01
 Gap=     0.108 Goal=   None    Shift=    0.000
 RMSDP=6.34D-06 MaxDP=4.27D-04 DE= 9.23D-05 OVMax= 9.73D-04

 Cycle  10  Pass 1  IDiag  1:
 RMSU=  2.68D-04    CP:  9.97D-01
 E= -1954.98761603499     Delta-E=       -0.000011697886 Rises=F Damp=F
 DIIS: error= 8.61D-05 at cycle   2 NSaved=   2.
 NSaved= 2 IEnMin= 2 EnMin= -1954.98761603499     IErMin= 2 ErrMin= 8.61D-05
 ErrMax= 8.61D-05  0.00D+00 EMaxC= 1.00D-01 BMatC= 6.89D-06 BMatP= 2.17D-05
 IDIUse=1 WtCom= 1.00D+00 WtEn= 0.00D+00
 Coeff-Com:  0.289D+00 0.711D+00
 Coeff:      0.289D+00 0.711D+00
 Gap=     0.109 Goal=   None    Shift=    0.000
 RMSDP=9.52D-06 MaxDP=5.55D-04 DE=-1.17D-05 OVMax= 1.42D-03

 Cycle  11  Pass 1  IDiag  1:
 RMSU=  8.99D-06    CP:  9.97D-01  1.01D+00
 E= -1954.98761232279     Delta-E=        0.000003712201 Rises=F Damp=F
 DIIS: error= 1.19D-04 at cycle   3 NSaved=   3.
 NSaved= 3 IEnMin= 2 EnMin= -1954.98761603499     IErMin= 2 ErrMin= 8.61D-05
 ErrMax= 1.19D-04  0.00D+00 EMaxC= 1.00D-01 BMatC= 1.01D-05 BMatP= 6.89D-06
 IDIUse=3 WtCom= 4.79D-01 WtEn= 5.21D-01
 Coeff-Com:  0.433D-02 0.547D+00 0.449D+00
 Coeff-En:   0.000D+00 0.574D+00 0.426D+00
 Coeff:      0.207D-02 0.561D+00 0.437D+00
 Gap=     0.108 Goal=   None    Shift=    0.000
 RMSDP=5.02D-06 MaxDP=3.39D-04 DE= 3.71D-06 OVMax= 8.37D-04

 Cycle  12  Pass 1  IDiag  1:
 RMSU=  1.13D-06    CP:  9.97D-01  1.01D+00  4.58D-01
 E= -1954.98762333603     Delta-E=       -0.000011013241 Rises=F Damp=F
 DIIS: error= 9.74D-06 at cycle   4 NSaved=   4.
 NSaved= 4 IEnMin= 4 EnMin= -1954.98762333603     IErMin= 4 ErrMin= 9.74D-06
 ErrMax= 9.74D-06  0.00D+00 EMaxC= 1.00D-01 BMatC= 1.92D-07 BMatP= 6.89D-06
 IDIUse=1 WtCom= 1.00D+00 WtEn= 0.00D+00
 Coeff-Com: -0.335D-02 0.334D+00 0.266D+00 0.403D+00
 Coeff:     -0.335D-02 0.334D+00 0.266D+00 0.403D+00
 Gap=     0.108 Goal=   None    Shift=    0.000
 RMSDP=6.36D-07 MaxDP=4.94D-05 DE=-1.10D-05 OVMax= 8.73D-05

 Cycle  13  Pass 1  IDiag  1:
 RMSU=  3.27D-07    CP:  9.97D-01  1.01D+00  4.54D-01  5.20D-01
 E= -1954.98762351437     Delta-E=       -0.000000178346 Rises=F Damp=F
 DIIS: error= 1.94D-06 at cycle   5 NSaved=   5.
 NSaved= 5 IEnMin= 5 EnMin= -1954.98762351437     IErMin= 5 ErrMin= 1.94D-06
 ErrMax= 1.94D-06  0.00D+00 EMaxC= 1.00D-01 BMatC= 4.59D-09 BMatP= 1.92D-07
 IDIUse=1 WtCom= 1.00D+00 WtEn= 0.00D+00
 Coeff-Com: -0.231D-02 0.216D+00 0.172D+00 0.270D+00 0.345D+00
 Coeff:     -0.231D-02 0.216D+00 0.172D+00 0.270D+00 0.345D+00
 Gap=     0.108 Goal=   None    Shift=    0.000
 RMSDP=1.26D-07 MaxDP=7.30D-06 DE=-1.78D-07 OVMax= 1.99D-05

 Cycle  14  Pass 1  IDiag  1:
 RMSU=  1.06D-07    CP:  9.97D-01  1.01D+00  4.55D-01  5.29D-01  7.94D-01
 E= -1954.98762351958     Delta-E=       -0.000000005210 Rises=F Damp=F
 DIIS: error= 3.32D-07 at cycle   6 NSaved=   6.
 NSaved= 6 IEnMin= 6 EnMin= -1954.98762351958     IErMin= 6 ErrMin= 3.32D-07
 ErrMax= 3.32D-07  0.00D+00 EMaxC= 1.00D-01 BMatC= 2.16D-10 BMatP= 4.59D-09
 IDIUse=1 WtCom= 1.00D+00 WtEn= 0.00D+00
 Coeff-Com: -0.954D-03 0.858D-01 0.687D-01 0.109D+00 0.193D+00 0.545D+00
 Coeff:     -0.954D-03 0.858D-01 0.687D-01 0.109D+00 0.193D+00 0.545D+00
 Gap=     0.108 Goal=   None    Shift=    0.000
 RMSDP=3.30D-08 MaxDP=1.90D-06 DE=-5.21D-09 OVMax= 8.18D-06

 Cycle  15  Pass 1  IDiag  1:
 RMSU=  2.61D-08    CP:  9.97D-01  1.01D+00  4.55D-01  5.25D-01  8.33D-01
                    CP:  8.66D-01
 E= -1954.98762351955     Delta-E=        0.000000000030 Rises=F Damp=F
 DIIS: error= 1.23D-07 at cycle   7 NSaved=   7.
 NSaved= 7 IEnMin= 6 EnMin= -1954.98762351958     IErMin= 7 ErrMin= 1.23D-07
 ErrMax= 1.23D-07  0.00D+00 EMaxC= 1.00D-01 BMatC= 3.38D-11 BMatP= 2.16D-10
 IDIUse=1 WtCom= 1.00D+00 WtEn= 0.00D+00
 Coeff-Com: -0.437D-06-0.155D-02-0.101D-02-0.976D-03 0.128D-01 0.288D+00
 Coeff-Com:  0.702D+00
 Coeff:     -0.437D-06-0.155D-02-0.101D-02-0.976D-03 0.128D-01 0.288D+00
 Coeff:      0.702D+00
 Gap=     0.108 Goal=   None    Shift=    0.000
 RMSDP=1.36D-08 MaxDP=1.12D-06 DE= 3.00D-11 OVMax= 2.96D-06

 Cycle  16  Pass 1  IDiag  1:
 RMSU=  1.03D-08    CP:  9.97D-01  1.01D+00  4.55D-01  5.26D-01  8.40D-01
                    CP:  9.26D-01  8.24D-01
 E= -1954.98762351964     Delta-E=       -0.000000000087 Rises=F Damp=F
 DIIS: error= 5.09D-08 at cycle   8 NSaved=   8.
 NSaved= 8 IEnMin= 8 EnMin= -1954.98762351964     IErMin= 8 ErrMin= 5.09D-08
 ErrMax= 5.09D-08  0.00D+00 EMaxC= 1.00D-01 BMatC= 6.72D-12 BMatP= 3.38D-11
 IDIUse=1 WtCom= 1.00D+00 WtEn= 0.00D+00
 Coeff-Com:  0.107D-03-0.105D-01-0.825D-02-0.126D-01-0.171D-01 0.116D+00
 Coeff-Com:  0.421D+00 0.511D+00
 Coeff:      0.107D-03-0.105D-01-0.825D-02-0.126D-01-0.171D-01 0.116D+00
 Coeff:      0.421D+00 0.511D+00
 Gap=     0.108 Goal=   None    Shift=    0.000
 RMSDP=4.68D-09 MaxDP=3.49D-07 DE=-8.73D-11 OVMax= 1.10D-06

 SCF Done:  E(RB3LYP) =  -1954.98762352     A.U. after   16 cycles
            NFock= 16  Conv=0.47D-08     -V/T= 2.0093
 KE= 1.936930395276D+03 PE=-1.427117844648D+04 EE= 5.514655446283D+03
 Leave Link  502 at Fri Jun  5 17:02:53 2026, MaxMem=  2516582400 cpu:             986.8 elap:              68.7
 (Enter /apl/gaussian/16c02/g16/l601.exe)
 Copying SCF densities to generalized density rwf, IOpCl= 0 IROHF=0.

 **********************************************************************

            Population analysis using the SCF Density.

 **********************************************************************

 Orbital symmetries:
       Occupied  (A) (A) (A) (A) (A) (A) (A) (A) (A) (A) (A) (A)
                 (A) (A) (A) (A) (A) (A) (A) (A) (A) (A) (A) (A)
                 (A) (A) (A) (A) (A) (A) (A) (A) (A) (A) (A) (A)
                 (A) (A) (A) (A) (A) (A) (A) (A) (A) (A) (A) (A)
                 (A) (A) (A) (A) (A) (A) (A) (A) (A) (A) (A) (A)
                 (A) (A) (A) (A) (A) (A) (A) (A) (A) (A) (A) (A)
                 (A) (A) (A) (A) (A) (A) (A) (A) (A) (A) (A) (A)
                 (A) (A) (A) (A) (A) (A) (A) (A) (A) (A) (A) (A)
                 (A) (A) (A) (A) (A) (A) (A) (A) (A) (A) (A) (A)
                 (A) (A) (A) (A) (A) (A) (A) (A) (A) (A) (A) (A)
                 (A) (A) (A) (A) (A) (A) (A) (A) (A) (A) (A) (A)
                 (A) (A) (A) (A) (A) (A) (A) (A) (A) (A) (A) (A)
                 (A) (A) (A) (A) (A) (A) (A) (A) (A) (A) (A) (A)
                 (A) (A) (A) (A)
       Virtual   (A) (A) (A) (A) (A) (A) (A) (A) (A) (A) (A) (A)
                 (A) (A) (A) (A) (A) (A) (A) (A) (A) (A) (A) (A)
                 (A) (A) (A) (A) (A) (A) (A) (A) (A) (A) (A) (A)
                 (A) (A) (A) (A) (A) (A) (A) (A) (A) (A) (A) (A)
                 (A) (A) (A) (A) (A) (A) (A) (A) (A) (A) (A) (A)
                 (A) (A) (A) (A) (A) (A) (A) (A) (A) (A) (A) (A)
                 (A) (A) (A) (A) (A) (A) (A) (A) (A) (A) (A) (A)
                 (A) (A) (A) (A) (A) (A) (A) (A) (A) (A) (A) (A)
                 (A) (A) (A) (A) (A) (A) (A) (A) (A) (A) (A) (A)
                 (A) (A) (A) (A) (A) (A) (A) (A) (A) (A) (A) (A)
                 (A) (A) (A) (A) (A) (A) (A) (A) (A) (A) (A) (A)
                 (A) (A) (A) (A) (A) (A) (A) (A) (A) (A) (A) (A)
                 (A) (A) (A) (A) (A) (A) (A) (A) (A) (A) (A) (A)
                 (A) (A) (A) (A) (A) (A) (A) (A) (A) (A) (A) (A)
                 (A) (A) (A) (A) (A) (A) (A) (A) (A) (A) (A) (A)
                 (A) (A) (A) (A) (A) (A) (A) (A) (A) (A) (A) (A)
                 (A) (A) (A) (A) (A) (A) (A) (A) (A) (A) (A) (A)
                 (A) (A) (A) (A) (A) (A) (A) (A) (A) (A) (A) (A)
                 (A) (A) (A) (A) (A) (A) (A) (A) (A) (A) (A) (A)
                 (A) (A) (A) (A) (A) (A) (A) (A) (A) (A) (A) (A)
                 (A) (A) (A) (A) (A) (A) (A) (A) (A) (A) (A) (A)
                 (A) (A) (A) (A) (A) (A) (A) (A) (A) (A) (A) (A)
                 (A) (A) (A) (A) (A) (A) (A) (A) (A) (A) (A) (A)
                 (A) (A) (A) (A) (A) (A) (A) (A) (A) (A) (A) (A)
                 (A) (A) (A) (A) (A) (A) (A) (A) (A) (A) (A) (A)
                 (A) (A) (A) (A) (A) (A) (A) (A) (A) (A) (A) (A)
                 (A) (A) (A) (A) (A) (A) (A) (A) (A) (A) (A) (A)
                 (A) (A) (A) (A) (A) (A) (A) (A) (A) (A) (A) (A)
                 (A) (A) (A) (A) (A) (A) (A) (A) (A) (A) (A) (A)
                 (A) (A) (A) (A) (A) (A) (A) (A) (A) (A) (A) (A)
                 (A) (A) (A) (A) (A) (A) (A) (A) (A) (A) (A) (A)
                 (A) (A) (A) (A) (A) (A) (A) (A) (A) (A) (A) (A)
                 (A) (A) (A) (A) (A) (A) (A) (A) (A) (A) (A) (A)
                 (A) (A) (A) (A) (A) (A) (A) (A) (A) (A) (A) (A)
                 (A) (A) (A) (A) (A) (A) (A) (A) (A) (A) (A) (A)
                 (A) (A) (A) (A) (A) (A) (A) (A) (A) (A) (A) (A)
                 (A) (A) (A) (A) (A) (A) (A) (A) (A) (A) (A) (A)
                 (A) (A) (A) (A) (A) (A) (A) (A) (A) (A) (A) (A)
                 (A) (A) (A) (A) (A) (A) (A) (A) (A) (A) (A) (A)
                 (A) (A) (A) (A) (A) (A) (A) (A) (A) (A) (A) (A)
                 (A) (A) (A) (A) (A) (A) (A) (A) (A) (A) (A) (A)
                 (A) (A) (A) (A) (A) (A) (A) (A) (A) (A) (A) (A)
                 (A) (A) (A) (A) (A) (A) (A) (A) (A) (A) (A) (A)
                 (A) (A) (A) (A) (A) (A) (A) (A) (A) (A) (A) (A)
                 (A) (A) (A) (A) (A) (A) (A) (A) (A) (A) (A) (A)
                 (A) (A) (A) (A) (A) (A) (A) (A) (A) (A) (A) (A)
                 (A) (A) (A) (A) (A) (A) (A) (A) (A) (A) (A) (A)
[...]
 -0.00410007,-0.00386107,-0.00208942,-0.00185628,0.01120282,-0.02630172
 ,0.00131828,0.00251656,0.00101998,-0.00001782,-0.00038225,0.00023513,-
 0.00000960,-0.00005026,0.00024653,0.00008861,-0.00018251,0.00008387,-0
 .00001298,-0.00017432,0.00028873,-0.00010456,0.00022121,-0.00014168,-0
 .00000845,-0.00002893,0.00009827,-0.00013115,0.00024162,-0.00024229,0.
 00023433,-0.00060994,-0.00028667,-0.00049478,0.00005199,0.00021112,0.0
 0007710,-0.00016514,0.00006230,-0.00005759,0.00000990,0.00001706,0.000
 04683,0.00004096,-0.00000223,-0.00000990,-0.00004125,-0.00005173,0.000
 07236,0.00005669,-0.00000656,0.00002140,0.00003217,0.00000717,-0.00003
 159,-0.00001428,0.00000035,0.00004074,-0.00002702,-0.00000786,-0.00004
 748,0.00003808,0.00000525,0.00005127,-0.00000847,0.00000135,-0.0000001
 0,0.00001980,0.00000723,-0.00000022,0.00000036,-0.00000152,0.00000023,
 -0.00000240,-0.00000515,-0.00000435,0.00001172,0.00001277,0.00001147,-
 0.00001844,-0.00001023,-0.00000932,0.00000868,-0.00000308,0.00000271,-
 0.00000053,0.00000197,-0.00000153,-0.00000115,-0.00000482,-0.00001647,
 -0.00002160,-0.00001163,0.00000277,0.00000321,0.00000382,0.00000188,-0
 .00000047,-0.00000276,-0.00000975,-0.00000871,-0.00001255,0.00001790,0
 .00001289,0.00001008,-0.00000932,-0.00000374,0.00000333,0.00000097,0.0
 0000104,0.00000618,0.00000234,0.00000010,0.00000178,0.00000628,0.00000
 679,0.00000588,-0.00001203,-0.00002428,0.00000356,-0.07669934,0.017483
 68,-0.07409597,0.00850688,-0.00696507,0.01897596,-0.00004885,0.0000012
 1,0.00001194,-0.00003516,-0.00001543,-0.00003380,-0.00000166,-0.000024
 59,-0.00004315,-0.00002954,0.00031668,0.00011433,-0.00018532,0.0005379
 3,-0.00148176,-0.00009760,-0.00004101,0.00001658,0.00000386,0.00000551
 ,-0.00001335,0.00001069,-0.00000504,-0.00001982,0.00000399,-0.00000324
 ,-0.00001582,-0.00000439,0.00001345,-0.00000796,-0.00001380,0.00003430
 ,-0.00000210,0.00002397,0.00003397,0.00008914,0.00002395,0.00002897,-0
 .00007346,0.00000266,-0.00000624,-0.00001084,-0.00001015,-0.00002013,0
 .00000132,-0.00000216,0.00000137,-0.00000159,0.00000229,0.00000186,-0.
 00000085,-0.00000017,0.00000046,0.00000055,0.00000114,-0.00000123,0.00
 000026,0.00000039,-0.00000112,-0.00000094,0.00000157,0.00000002,0.0000
 0136,0.00000062,-0.00000067,0.00000156,-0.00000107,0.00000009,0.000000
 06,-0.00000068,-0.00000166,0.00000262,-0.00000087,0.00000094,-0.000003
 57,0.00000033,0.00000066,0.00000122,0.00000088,-0.00000033,-0.00000147
 ,0.00000062,0.00000004,-0.00000125,0.00000109,0.00000093,0.00000079,0.
 00000090,0.00000091,-0.00000046,-0.00000137,-0.00000016,0.00000040,-0.
 00000066,-0.00000224,-0.00000267,0.07450986,0.00036881,0.00012269,0.00
 007882,0.00018661,-0.00040268,0.00111195,-0.00514737,0.00247821,0.0026
 4816,-0.00028394,-0.00043402,-0.00026011,-0.00301946,0.00266403,0.0010
 3306,-0.00314773,0.00610875,-0.00715687,0.00151116,-0.00277863,-0.0017
 5652,-0.00125499,0.00003514,-0.00065203,0.00009435,-0.00016385,0.00042
 279,-0.00009439,0.00007017,0.00002317,0.00008747,-0.00028737,0.0000535
 0,-0.00008090,0.00023595,-0.00017466,-0.00003352,-0.00004505,0.0001438
 6,0.00009569,-0.00006220,-0.00003409,0.00003725,-0.00044519,-0.0000302
 8,0.00005880,0.00037076,-0.00005098,0.00007802,0.00009116,-0.00002380,
 0.00000388,-0.00002877,0.00000905,0.00004681,-0.00004667,-0.00000975,-
 0.00004892,0.00002982,0.00003852,0.00010394,0.00002611,-0.00003745,-0.
 00000980,-0.00000180,0.00001150,0.00000564,0.00000254,0.00000133,-0.00
 000034,0.00000427,-0.00000015,-0.00002089,-0.00000768,0.00000028,0.000
 01327,-0.00000603,-0.00000545,-0.00000284,0.00001043,0.00000720,0.0000
 0080,-0.00000066,-0.00000071,-0.00000071,-0.00000117,-0.00000233,-0.00
 000159,0.00000680,0.00000665,0.00000329,-0.00001006,-0.00000657,-0.000
 00209,0.00000392,-0.00000112,0.00000106,-0.00000153,0.00000221,-0.0000
 0156,-0.00000091,-0.00000184,0.00000007,-0.00000327,-0.00000022,0.0000
 0025,-0.00000022,0.00000068,0.00000036,-0.00000063,-0.00000015,-0.0000
 0127,-0.00000049,-0.00000138,0.00000247,0.00000068,0.00000061,-0.00000
 183,0.00000015,0.00000045,0.00000072,-0.00000018,0.00000073,-0.0000001
 3,-0.00000056,0.00000069,0.00002349,0.00000437,-0.00000047,-0.00004099
 ,-0.00001509,-0.00000782,0.01935329,-0.07762508,0.09715878,0.00611835,
 -0.00411302,0.01705200,-0.00003020,0.00004604,-0.00003989,-0.00004878,
 0.00000142,-0.00000665,-0.00004009,-0.00003442,-0.00001428,0.00029214,
 -0.00041336,-0.00021096,-0.00032977,0.00049095,-0.00029838,0.00003886,
 0.00000895,-0.00003714,0.00000500,0.00000872,-0.00001741,0.00000801,-0
 .00001049,-0.00001900,0.00001743,-0.00000292,-0.00001550,-0.00000543,0
 .00001475,-0.00001071,0.00000811,0.00000829,0.00000841,-0.00002951,0.0
 0006113,-0.00008109,-0.00001906,-0.00005895,0.00002617,0.00001137,-0.0
 0000677,0.00000186,-0.00000610,-0.00001554,-0.00002495,-0.00000160,-0.
 00000214,-0.00000005,-0.00000020,0.00000066,-0.00000117,-0.00000021,0.
 00000059,-0.00000026,0.00000065,-0.00000019,0.00000006,0.00000064,-0.0
 0000048,-0.00000056,-0.00000005,-0.00000055,0.00000040,0.00000044,-0.0
 0000031,0.00000108,0.00000054,0.00000057,-0.00000115,0.00000034,0.0000
 0035,0.00000144,-0.00000030,0.00000072,-0.00000063,-0.00000031,0.00000
 041,-0.00000016,0.00000031,-0.00000037,-0.00000030,0.00000007,-0.00000
 007,0.00000008,0.00000001,0.00000018,0.00000008,0.,0.00000042,-0.00000
 009,-0.00000016,0.00000053,-0.00000025,0.00000183,-0.00000091,0.000001
 59,-0.01654070,0.07606930,-0.00040914,-0.00018700,-0.00015656,-0.00002
 510,0.00053769,-0.00080091,0.00108150,0.00322310,0.00243492,0.00023686
 ,-0.00044676,0.00051019,-0.00324812,0.00044810,0.00139450,-0.00193984,
 0.00579062,-0.00827919,0.00106710,-0.00115267,-0.00022621,-0.00013948,
 0.00054059,-0.00010443,0.00012901,-0.00027086,0.00050221,-0.00020524,0
 .00029539,-0.00004354,0.00016773,-0.00019576,-0.00017805,-0.00005663,0
 .00014797,-0.00010905,-0.00002900,-0.00003027,0.00009986,0.00024302,-0
 .00022058,0.00028008,0.00040373,0.00039266,-0.00004528,-0.00003389,-0.
 00000136,-0.00004136,0.00002089,0.00003554,0.00005138,0.00003232,-0.00
 000973,0.00002286,0.00001196,-0.00003134,-0.00001167,-0.00002636,-0.00
 000217,0.00001785,0.00005657,0.00003259,0.00003478,-0.00000804,-0.0000
 0695,0.00000299,0.00000796,0.00000520,0.00000140,-0.00000754,0.0000039
 5,0.00000270,-0.00000185,-0.00000792,-0.00000059,0.00000005,-0.0000005
 4,0.00000035,0.00000051,-0.00000030,0.,-0.00000088,0.00000026,0.000000
 41,-0.00000004,-0.00000109,-0.00000029,0.00000027,0.00000066,0.0000005
 5,0.00000043,-0.00000151,0.00000039,-0.00000021,0.00000128,-0.00000109
 ,-0.00000041,-0.00000001,0.00000019,-0.00000093,0.00000014,-0.00000067
 ,-0.00000039,0.00000007,-0.00000003,0.00000117,-0.00000020,-0.00000092
 ,0.00000015,-0.00000036,0.00000030,0.00000085,0.00000127,0.00000117,-0
 .00000185,-0.00000187,-0.00000002,0.00000109,0.00000124,-0.00000111,-0
 .00000044,-0.00000091,-0.00000049,0.00000085,0.00000004,0.00000037,0.0
 0000808,0.00000163,0.00000241,-0.00000863,-0.00000082,-0.00000791,-0.0
 7429375,0.09581021,-0.28159700,-0.00494040,0.00401997,-0.00979760,0.00
 005297,-0.00000295,0.00003024,0.00003329,0.00003073,0.00000820,0.00001
 766,0.00000013,0.00007559,0.00014323,-0.00022406,-0.00020354,-0.000100
 65,0.00037860,-0.00037659,0.00000202,-0.00001447,-0.00003555,0.0000130
 9,0.00001346,-0.00000757,0.00000567,-0.00000744,-0.00001164,0.00001455
 ,-0.00000609,-0.00000811,-0.00000518,0.00000893,-0.00000772,-0.0000082
 5,-0.00000955,-0.00000161,-0.00013516,-0.00005088,-0.00017715,-0.00002
 033,-0.00002279,-0.00004900,0.00000440,-0.00000224,-0.00000206,-0.0000
 1431,-0.00002488,-0.00002402,-0.00000090,-0.00000165,-0.00000192,-0.00
 000071,0.00000016,-0.00000088,0.00000048,0.00000034,0.00000010,0.00000
 049,0.00000006,-0.00000015,0.00000009,0.00000007,-0.00000003,-0.000000
 08,-0.00000016,0.00000004,-0.00000005,-0.00000026,0.00000052,0.0000000
 6,0.00000052,0.00000009,0.00000021,-0.00000009,-0.00000031,-0.00000036
 ,0.00000024,-0.00000026,0.00000016,0.00000059,0.00000003,-0.00000004,-
 0.00000011,0.00000010,0.,-0.00000024,0.00000050,-0.00000013,0.00000002
 ,-0.00000010,-0.00000039,0.00000015,0.00000003,-0.00000022,0.00000036,
 0.00000015,0.00000114,-0.00000024,-0.00000119,0.08084870,-0.10705249,0
 .29682740,-0.00123314,-0.00142481,0.00120422,-0.00071771,0.00111051,0.
 00049625,-0.00460784,-0.00320760,-0.00263527,0.00191140,-0.00042131,-0
 .00227817,0.00044218,0.00007897,0.00040567,0.00189595,-0.00333086,0.00
 144007,-0.00098911,-0.00055861,0.00003573,-0.00023874,0.00036540,-0.00
 021389,-0.00000561,-0.00009196,0.00006959,0.00000158,0.00001455,-0.000
 00293,-0.00003225,0.00006299,-0.00004825,0.00005340,-0.00011069,0.0000
 8319,0.00000840,0.00001245,-0.00006309,0.00000644,-0.00000549,0.000041
 14,0.00007420,-0.00000381,-0.00001692,0.00037432,-0.00036479,-0.000102
 27,-0.00011416,0.00011812,0.00003121,0.00008299,-0.00000474,0.00000380
 ,-0.00007857,-0.00002305,-0.00000339,0.00002432,-0.00002248,0.00001179
 ,-0.00014390,0.00003629,0.00004106,-0.00001373,-0.00003496,-0.00000319
 ,0.00003252,0.00001696,0.00000136,-0.00004626,0.00002510,0.00001088,0.
 00006567,-0.00003468,-0.00000575,-0.00006309,0.00001464,0.00000669,0.0
 0000473,-0.00003198,-0.00001587,-0.00000211,0.00000103,0.00000282,0.00
 000082,0.00000199,0.00000710,0.00000618,-0.00001797,-0.00001885,-0.000
 01379,0.00002713,0.00001771,0.00001066,-0.00001115,0.00000297,-0.00000
 416,0.00000231,-0.00000402,0.00000165,0.00000285,0.00000556,0.00001344
 ,0.00002333,0.00001013,-0.00000080,-0.00000272,-0.00000579,-0.00000191
 ,0.00000074,0.00000308,0.00001129,0.00001000,0.00001440,-0.00002141,-0
 .00001473,-0.00000959,0.00001198,0.00000479,-0.00000510,-0.00000253,-0
 .00000209,-0.00000703,-0.00000048,0.00000068,-0.00000180,-0.00002334,-
 0.00001002,-0.00000218,0.00004557,0.00003677,-0.00000367,-0.01393642,-
 0.00381025,-0.00894406,-0.26657208,-0.07113397,-0.11206012,-0.00052968
 ,-0.00124799,0.00081904,0.00043996,0.00010331,0.00072508,-0.00016994,0
 .00028426,0.00063000,-0.00026411,-0.00022654,-0.00002011,-0.00021926,0
 .00026988,0.00011981,-0.00000696,0.00000057,-0.00000734,-0.00000002,-0
 .00000738,0.00001021,-0.00000349,0.00000538,0.00001139,-0.00000472,0.0
 0000217,0.00000724,0.00000203,-0.00000598,0.00000451,0.00000191,-0.000
 01201,-0.00000307,-0.00002162,0.00000942,0.00000878,0.00000095,-0.0000
 2398,-0.00002884,-0.00000995,0.00000939,0.00000333,0.00000792,0.000004
 83,-0.00000650,0.00000202,-0.00000150,-0.00000165,-0.00000299,-0.00000
 221,0.00000040,0.00000114,-0.00000080,0.,-0.00000123,0.00000139,-0.000
 00048,-0.00000102,0.00000164,0.00000151,-0.00000143,0.00000049,-0.0000
 0167,-0.00000112,0.00000067,-0.00000218,0.00000030,0.00000003,0.000001
 54,0.00000044,0.00000093,-0.00000459,0.00000071,-0.00000147,0.00000345
 ,0.00000044,-0.00000026,-0.00000079,-0.00000122,0.00000061,0.00000182,
 -0.00000065,-0.00000028,0.00000170,-0.00000114,-0.00000103,-0.00000091
 ,-0.00000139,-0.00000109,0.00000055,0.00000100,0.,0.00000023,-0.000000
 01,0.00000277,-0.00000143,0.00014456,0.00166608,0.00105465,0.28442205,
 -0.00032673,-0.00099201,0.00144529,0.00009978,-0.00169699,-0.00205714,
 0.01096826,0.00737982,0.00405899,-0.00131012,0.00182185,0.00366435,0.0
 0001732,-0.00038075,0.00063009,-0.00332054,0.00223371,0.00474963,-0.00
 133006,0.00024780,-0.00046607,-0.00010865,0.00021508,-0.00008239,0.000
 01068,-0.00000446,-0.00003502,0.00004930,-0.00005364,-0.00000603,-0.00
 006050,0.00004779,0.00003368,0.00005444,-0.00007459,0.00003897,-0.0000
 0148,0.00000046,-0.00002738,0.00001252,0.00002292,0.00000262,0.0000098
 7,-0.00004395,0.00005411,0.00004554,-0.00042148,0.00005253,-0.00001415
 ,0.00001812,-0.00004266,0.00001004,0.00000159,-0.00001138,-0.00001846,
 -0.00000355,0.00001118,0.00000023,-0.00003297,-0.00000160,-0.00011979,
 0.00004614,0.00008190,-0.00001213,-0.00001786,-0.00001432,0.00001621,0
 .00001315,-0.00000119,-0.00002705,0.00001446,0.00000770,0.00003693,-0.
 00002179,-0.00000467,-0.00003812,0.00000474,0.00000002,0.00000056,-0.0
 0001471,-0.00000555,-0.00000039,-0.00000009,0.00000170,-0.00000021,0.0
 0000074,0.00000352,0.00000278,-0.00000680,-0.00000816,-0.00000728,0.00
 001088,0.00000722,0.00000607,-0.00000448,0.00000115,-0.00000206,-0.000
 00002,-0.00000152,-0.00000009,0.00000123,0.00000308,0.00001206,0.00001
 615,0.00000860,-0.00000091,-0.00000251,-0.00000337,-0.00000147,-0.0000
 0010,0.00000237,0.00000790,0.00000737,0.00000978,-0.00001436,-0.000010
 83,-0.00000745,0.00000746,0.00000368,-0.00000318,-0.00000093,-0.000001
 37,-0.00000462,-0.00000131,-0.00000024,-0.00000117,-0.00000907,-0.0000
 0626,-0.00000233,0.00001277,0.00001802,0.00000113,-0.01709290,-0.00312
 444,-0.01014278,-0.07162842,-0.05988955,-0.02113312,0.00020305,0.00006
 682,-0.00008455,0.00031346,-0.00028915,-0.00004060,-0.00107278,-0.0014
 8284,0.00090483,0.00056092,0.00030719,0.00037014,0.00025066,-0.0004518
 8,-0.00034181,0.00000189,0.00000346,-0.00001055,-0.00000059,-0.0000081
 4,0.00000384,-0.00000362,0.00000386,0.00000702,0.00000115,0.00000333,0
 .00000302,0.00000032,-0.00000383,0.00000273,-0.00000170,-0.00002850,-0
 .00000537,-0.00002689,0.00001999,-0.00000914,0.00001464,-0.00000166,0.
 00000688,-0.00000336,0.00000446,0.00000107,0.00000428,-0.00000503,-0.0
 0000072,0.00000096,-0.00000242,-0.00000180,-0.00000249,-0.00000144,0.0
 0000142,0.00000055,-0.00000006,-0.00000030,-0.00000033,0.00000094,-0.0
 0000021,-0.00000014,0.00000081,0.00000054,-0.00000115,-0.00000023,-0.0
 0000088,-0.00000042,0.00000022,-0.00000052,0.00000062,0.00000049,0.000
 00016,0.00000063,0.00000100,-0.00000232,0.00000041,-0.00000043,0.00000
 247,-0.00000015,-0.00000007,-0.00000089,-0.00000065,0.00000012,0.00000
 111,-0.00000045,-0.00000021,0.00000129,-0.00000091,-0.00000066,-0.0000
 0065,-0.00000096,-0.00000053,0.00000034,0.00000080,0.00000043,-0.00000
 020,0.00000052,0.00000175,-0.00000063,0.00195242,-0.00194966,-0.001732
 97,0.08187579,0.05849155,-0.00053740,0.00042056,-0.00123372,0.00168428
 ,-0.00149239,0.00119010,-0.02613390,-0.00992522,-0.00511230,-0.0012934
 9,0.00419915,-0.00403771,0.00064055,0.00073267,-0.00068314,0.00069404,
 0.00400274,0.00036208,0.00060052,0.00034666,0.00003860,0.00007807,-0.0
 0019916,0.00009721,0.00000441,0.00005790,-0.00009795,0.00003332,-0.000
 05570,-0.00001077,-0.00003522,0.00003372,0.00004310,0.00000884,-0.0000
 1675,-0.00000010,0.00000294,0.00000875,-0.00000057,-0.00001834,0.00002
 536,-0.00002938,-0.00004550,-0.00003832,0.00004093,-0.00000371,0.00017
 488,0.00008736,0.00002864,-0.00001779,-0.00003564,-0.00001613,-0.00000
 822,-0.00000595,0.00000915,0.00000763,0.00000767,0.00001891,0.00001507
 ,-0.00000842,0.00004377,-0.00002603,-0.00000366,-0.00000134,-0.0000067
 3,-0.00000242,0.00000580,0.00000235,-0.00000120,-0.00000814,0.00000723
 ,0.00000308,0.00001792,-0.00000784,-0.00000224,-0.00001829,0.00000159,
 -0.00000020,-0.00000020,-0.00000620,-0.00000213,-0.00000009,-0.0000004
 5,0.00000042,-0.00000016,0.00000050,0.00000217,0.00000193,-0.00000440,
 -0.00000511,-0.00000505,0.00000691,0.00000386,0.00000435,-0.00000336,0
 .00000101,-0.00000112,0.00000004,-0.00000029,0.00000003,0.00000036,0.0
 0000155,0.00000606,0.00000784,0.00000424,0.00000009,-0.00000104,-0.000
 00183,-0.00000125,-0.00000026,0.00000126,0.00000536,0.00000468,0.00000
 586,-0.00000906,-0.00000648,-0.00000444,0.00000493,0.00000219,-0.00000
 186,-0.00000056,-0.00000067,-0.00000263,-0.00000077,0.00000005,-0.0000
 0027,-0.00000272,-0.00000424,-0.00000191,0.00000269,0.00000354,0.00000
 128,0.01513210,0.00394818,0.01006158,-0.11110760,-0.02018232,-0.106910
 82,0.00125927,0.00026485,-0.00081694,0.00035586,-0.00024608,0.00030269
 ,-0.00007385,0.00042777,0.00036610,-0.00138541,-0.00043091,-0.00041513
 ,0.00012484,-0.00034618,-0.00009480,0.00000991,0.00000480,0.00000001,0
 .00000185,0.00000146,-0.00000105,-0.00000134,-0.00000042,-0.00000241,-
 0.00000145,0.00000041,-0.00000041,0.00000096,-0.00000228,0.00000026,0.
 ,-0.00000646,-0.00000002,0.00000133,0.00000908,-0.00000245,0.00001062,
 -0.00000199,0.00000256,0.00000255,-0.00000122,-0.00000286,-0.00000137,
 -0.00000180,0.00000277,0.00000045,-0.00000030,-0.00000066,-0.00000064,
 -0.00000089,0.00000083,0.00000035,0.00000002,-0.00000025,-0.00000024,0
 .00000056,-0.00000023,-0.00000003,0.00000046,0.00000042,-0.00000083,-0
 .00000018,-0.00000060,-0.00000023,0.00000018,-0.00000047,0.00000059,0.
 00000011,-0.00000020,0.00000038,0.00000079,-0.00000081,0.00000019,-0.0
 0000026,0.00000106,0.00000017,0.00000001,-0.00000039,-0.00000045,0.000
 00015,0.00000074,-0.00000031,-0.00000009,0.00000073,-0.00000054,-0.000
 00046,-0.00000045,-0.00000049,-0.00000034,0.00000032,0.00000047,0.0000
 0016,-0.00000010,0.00000100,0.00000062,-0.00000063,0.00072865,-0.00179
 936,0.00000851,0.11917908,0.02012077,0.10689716\\-0.00000868,-0.000007
 86,0.00000425,0.00001016,0.00000967,-0.00000169,-0.00000403,-0.0000066
 6,0.00000189,0.00000447,0.00000071,0.00000235,-0.00000581,-0.00000185,
 0.00000512,0.00001041,-0.00000265,-0.00000072,-0.00002319,0.00002221,-
 0.00000836,0.00001239,-0.00001532,0.00001110,-0.00000097,0.00000728,-0
 .00000341,0.00000331,-0.00000453,0.00000142,-0.00000065,0.00000356,-0.
 00000414,0.00000075,-0.00000405,0.00000685,-0.00000505,0.00000717,-0.0
 0000398,-0.00000161,-0.00000076,-0.00000140,-0.00000618,0.00000022,-0.
 00000343,0.00000406,-0.00001320,0.00000446,-0.00000131,-0.00000223,-0.
 00000031,0.00001316,0.00001424,0.00002741,-0.00003150,-0.00003713,-0.0
 0004192,-0.00004631,0.00002087,0.00001471,0.00003061,-0.00000283,0.000
 00360,0.00002303,0.00003750,-0.00003903,-0.00000497,-0.00001795,0.0000
 2512,-0.00000332,0.00000335,0.00000046,-0.00000325,0.00000582,0.000003
 52,0.00001994,-0.00000627,0.00001782,-0.00001479,0.00000580,-0.0000163
 6,0.00000850,-0.00001198,-0.00000587,0.00000281,0.00000893,0.00001688,
 -0.00000682,-0.00000113,-0.00001462,-0.00000661,0.00000819,0.00000648,
 0.00000560,-0.00000845,-0.00000552,0.00000572,-0.00000995,-0.00000331,
 0.00000320,0.00000442,0.00001020,-0.00001328,-0.00000362,-0.00001817,0
 .00000696,0.00000646,0.00000761,-0.00000473,-0.00000090,0.00000028,0.0
 0000480,0.00000570,-0.00000166,-0.00000694,-0.00000695,-0.00000044,0.0
 0000673,0.00000716,0.00000423,-0.00000162,-0.00000388,-0.00000237,0.00
 000691,0.00000103,0.00000723,-0.00002594,0.00000159,0.00000767,0.00004
 772,-0.00001658,0.00000434,-0.00000362,-0.00000396,0.00000525,-0.00000
 085,0.00000509,-0.00000442,0.00000027,0.00000151,-0.00000112,0.0000027
 0,0.00000313,-0.00000207,0.00000070,0.00000125,-0.00000119,-0.00000114
 ,0.00000003,0.00000020,0.00000280,0.00000316,-0.00000159,0.00000040,-0
 .00000164,-0.00000131,-0.00000060,-0.00000002,0.00000002,0.00000136,-0
 .00000246,-0.00000109,0.00000187,-0.00000146,-0.00000107,0.00000190,-0
 .00000397,0.00000053,0.00000023,0.00000048,-0.00000008,-0.00000025,-0.
 00000168,0.00000201,-0.00000204,-0.00000139,0.00000113,0.00000170,0.00
 000093,-0.00000391,-0.00000431,0.00000062,-0.00000180,-0.00000240,-0.0
 0000019,-0.00000442,0.00000179,0.00000141,0.00000049,-0.00000026,0.000
 00331,0.00000347,-0.00000094,-0.00000172,-0.00000187,-0.00000103,0.000
 00287,0.00000346,0.00000010,0.00000104,0.00000243,-0.00000009,0.000000
 06,0.00000210,0.00000008,0.00000005,0.00000045,-0.00000124,0.00000167,
 0.00000016,-0.00000236,-0.00000188,-0.00000103,0.00000040,0.00000038,-
 0.00000022,-0.00000014,-0.00000106,-0.00000213,-0.00000060,-0.00000045
 ,-0.00000238,-0.00000285,-0.00000171,-0.00000306,0.00000021,0.00000081
 ,0.00000071,0.00000037,-0.00000108,-0.00000263,0.00000348,-0.00000044,
 -0.00000223,0.00000035,0.00000326,-0.00000275,0.00000033,-0.00000114,0
 .00000166\\\@
 The archive entry for this job was punched.


 ... IT IS NO ONE DREAME THAT
     CAN PLEASE THESE ALL ...

                -- BEN JONSON
 Job cpu time:       0 days  6 hours 56 minutes 17.2 seconds.
 Elapsed time:       0 days  0 hours 27 minutes 13.8 seconds.
 File lengths (MBytes):  RWF=   4748 Int=      0 D2E=      0 Chk=     50 Scr=      1
 Normal termination of Gaussian 16 at Fri Jun  5 17:41:24 2026.
