 Entering Gaussian System, Link 0=/apl/gaussian/16c02/g16/._.g16
 Initial command:
 /apl/gaussian/16c02/g16/l1.exe "/lwork/users/sm2/679437.ccpbs1/gaussian/Gau-3480606.inp" -scrdir="/lwork/users/sm2/679437.ccpbs1/gaussian/"
 Default CPUs for threads: 112,113,114,115,116,117,118,119,120,121,122,123,124,12
 5,126,127
 Default is to use a total of  16 processors:
                               16 via shared-memory
                                1 via Linda
 Entering Link 1 = /apl/gaussian/16c02/g16/l1.exe PID=   3480607.
  
 Copyright (c) 1988-2021, Gaussian, Inc.  All Rights Reserved.
  
 This is part of the Gaussian(R) 16 program.  It is based on
 the Gaussian(R) 09 system (copyright 2009, Gaussian, Inc.),
 the Gaussian(R) 03 system (copyright 2003, Gaussian, Inc.),
 the Gaussian(R) 98 system (copyright 1998, Gaussian, Inc.),
 the Gaussian(R) 94 system (copyright 1995, Gaussian, Inc.),
 the Gaussian 92(TM) system (copyright 1992, Gaussian, Inc.),
 the Gaussian 90(TM) system (copyright 1990, Gaussian, Inc.),
 the Gaussian 88(TM) system (copyright 1988, Gaussian, Inc.),
 the Gaussian 86(TM) system (copyright 1986, Carnegie Mellon
 University), and the Gaussian 82(TM) system (copyright 1983,
 Carnegie Mellon University). Gaussian is a federally registered
 trademark of Gaussian, Inc.
  
 This software contains proprietary and confidential information,
 including trade secrets, belonging to Gaussian, Inc.
  
 This software is provided under written license and may be
 used, copied, transmitted, or stored only in accord with that
 written license.
  
 The following legend is applicable only to US Government
 contracts under FAR:
  
                    RESTRICTED RIGHTS LEGEND
  
 Use, reproduction and disclosure by the US Government is
 subject to restrictions as set forth in subparagraphs (a)
 and (c) of the Commercial Computer Software - Restricted
 Rights clause in FAR 52.227-19.
  
 Gaussian, Inc.
 340 Quinnipiac St., Bldg. 40, Wallingford CT 06492
  
  
 ---------------------------------------------------------------
 Warning -- This program may not be used in any manner that
 competes with the business of Gaussian, Inc. or will provide
 assistance to any competitor of Gaussian, Inc.  The licensee
 of this program is prohibited from giving any competitor of
 Gaussian, Inc. access to this program.  By using this program,
 the user acknowledges that Gaussian, Inc. is engaged in the
 business of creating and licensing software in the field of
 computational chemistry and represents and warrants to the
 licensee that it is not a competitor of Gaussian, Inc. and that
 it will not use this program in any manner prohibited above.
 ---------------------------------------------------------------
  

 Cite this work as:
 Gaussian 16, Revision C.02,
 M. J. Frisch, G. W. Trucks, H. B. Schlegel, G. E. Scuseria, 
 M. A. Robb, J. R. Cheeseman, G. Scalmani, V. Barone, 
 G. A. Petersson, H. Nakatsuji, X. Li, M. Caricato, A. V. Marenich, 
 J. Bloino, B. G. Janesko, R. Gomperts, B. Mennucci, H. P. Hratchian, 
 J. V. Ortiz, A. F. Izmaylov, J. L. Sonnenberg, D. Williams-Young, 
 F. Ding, F. Lipparini, F. Egidi, J. Goings, B. Peng, A. Petrone, 
 T. Henderson, D. Ranasinghe, V. G. Zakrzewski, J. Gao, N. Rega, 
 G. Zheng, W. Liang, M. Hada, M. Ehara, K. Toyota, R. Fukuda, 
 J. Hasegawa, M. Ishida, T. Nakajima, Y. Honda, O. Kitao, H. Nakai, 
 T. Vreven, K. Throssell, J. A. Montgomery, Jr., J. E. Peralta, 
 F. Ogliaro, M. J. Bearpark, J. J. Heyd, E. N. Brothers, K. N. Kudin, 
 V. N. Staroverov, T. A. Keith, R. Kobayashi, J. Normand, 
 K. Raghavachari, A. P. Rendell, J. C. Burant, S. S. Iyengar, 
 J. Tomasi, M. Cossi, J. M. Millam, M. Klene, C. Adamo, R. Cammi, 
 J. W. Ochterski, R. L. Martin, K. Morokuma, O. Farkas, 
 J. B. Foresman, and D. J. Fox, Gaussian, Inc., Wallingford CT, 2019.
 
 ******************************************
 Gaussian 16:  ES64L-G16RevC.02  7-Dec-2021
                 5-Jun-2026 
 ******************************************
 %chk=TCTA.chk
 %mem=19200MB
 SetSPE:  set environment variable "OMP_PROC_BIND" = "true"
 SetSPE:  set environment variable "OMP_PLACES" = "{112},{113},{114},{115},{116},{117},{118},{119},{120},{121},{122},{123},{124},{125},{126},{127}"
 --------------------------
 #p B3LYP/6-31G(d) opt freq
 --------------------------
 1/18=20,19=15,26=3,38=1/1,3;
 2/9=110,12=2,17=6,18=5,40=1/2;
 3/5=1,6=6,7=1,11=2,25=1,30=1,71=1,74=-5/1,2,3;
 4//1;
 5/5=2,38=5/2;
 6/7=2,8=2,9=2,10=2,28=1/1;
 7//1,2,3,16;
 1/18=20,19=15,26=3/3(2);
 2/9=110/2;
 99//99;
 2/9=110/2;
 3/5=1,6=6,7=1,11=2,25=1,30=1,71=1,74=-5/1,2,3;
 4/5=5,16=3,69=1/1;
 5/5=2,38=5/2;
 7//1,2,3,16;
 1/18=20,19=15,26=3/3(-5);
 2/9=110/2;
 6/7=2,8=2,9=2,10=2,19=2,28=1/1;
 99/9=1/99;
 Leave Link    1 at Fri Jun  5 17:00:45 2026, MaxMem=  2516582400 cpu:               0.1 elap:               0.2
 (Enter /apl/gaussian/16c02/g16/l101.exe)
 ----------------------------------
 TCTA - B3LYP/6-31G(d) optimization
 ----------------------------------
 Symbolic Z-matrix:
 Charge =  0 Multiplicity = 1
 C                     6.51158   0.90757   3.19257 
 C                     6.29084   2.1272    2.55423 
 C                     5.53777   2.17747   1.37941 
 C                     4.9999    1.00117   0.84209 
 N                     4.22371   1.05028  -0.3547 
 C                     4.54625   1.78617  -1.49761 
 C                     5.67324   2.57183  -1.82038 
 C                     5.73115   3.18875  -3.07354 
 C                     4.70916   3.01939  -3.99744 
 C                     3.61131   2.21172  -3.69221 
 C                     3.53147   1.57439  -2.43387 
 C                     2.58099   0.68521  -1.85323 
 C                     1.37066   0.13019  -2.3232 
 C                     0.61049  -0.70073  -1.49483 
 C                     1.03628  -0.97673  -0.19683 
 N                     0.23867  -1.79863   0.65602 
 C                     0.72368  -2.82354   1.47177 
 C                     2.01698  -3.36697   1.62435 
 C                     2.20505  -4.4221    2.52164 
 C                     1.1372   -4.94422   3.23875 
 C                    -0.14963  -4.43107   3.05956 
 C                    -0.36584  -3.36656   2.15631 
 C                    -1.53568  -2.66775   1.73787 
 C                    -2.90017  -2.78208   2.08249 
 C                    -3.84133  -1.91265   1.5224 
 C                    -3.437    -0.91729   0.63403 
 N                    -4.40176  -0.01628   0.08782 
 C                    -5.65201  -0.38223  -0.41807 
 C                    -6.26063  -1.64344  -0.59357 
 C                    -7.53943  -1.70508  -1.15509 
 C                    -8.19722  -0.54978  -1.55432 
 C                    -7.57968   0.69528  -1.4153 
 C                    -6.28641   0.78375  -0.85338 
 C                    -5.40118   1.87595  -0.61831 
 C                    -5.50134   3.26546  -0.85385 
 C                    -4.45939   4.1151   -0.47523 
 C                    -3.32934   3.60181   0.14616 
 C                    -3.20588   2.23063   0.38868 
 C                    -4.24137   1.3671   -0.02884 
 C                    -2.08552  -0.78738   0.27665 
 C                    -1.14575  -1.69433   0.8161 
 C                     2.2407   -0.44173   0.28799 
 C                     3.02124   0.36932  -0.56642 
 C                     5.22402  -0.22235   1.48608 
 C                     5.97996  -0.26562   2.65919 
 H                     7.0981    0.87149   4.10723 
 H                     6.69778   3.04231   2.97729 
 H                     5.34564   3.14611   0.92417 
 H                     6.5007    2.69256  -1.1279 
 H                     6.59288   3.80128  -3.32905 
 H                     4.76854   3.50389  -4.96869 
 H                     2.82546   2.0678   -4.42849 
 H                     1.02491   0.34972  -3.33 
 H                    -0.29842  -1.14114  -1.89855 
 H                     2.85999  -2.99797   1.04889 
 H                     3.19891  -4.84454   2.65083 
 H                     1.29778  -5.7664    3.93148 
 H                    -0.98329  -4.85943   3.60891 
 H                    -3.22028  -3.5344    2.79845 
 H                    -4.8777   -1.99814   1.84126 
 H                    -5.75336  -2.56361  -0.32034 
 H                    -8.01915  -2.67209  -1.28827 
 H                    -9.19046  -0.61307  -1.99125 
 H                    -8.09201   1.59312  -1.7493 
 H                    -6.39163   3.67703  -1.32086 
 H                    -4.54245   5.18381  -0.65511 
 H                    -2.53225   4.27336   0.45728 
 H                    -2.32675   1.85875   0.90646 
 H                    -1.7707   -0.01973  -0.42314 
 H                     2.53569  -0.59507   1.32212 
 H                     4.85569  -1.15606   1.06928 
 H                     6.1606   -1.21675   3.15385 
 
 ITRead=  0  0  0  0  0  0  0  0  0  0  0  0  0  0  0  0  0  0  0  0
 ITRead=  0  0  0  0  0  0  0  0  0  0  0  0  0  0  0  0  0  0  0  0
 ITRead=  0  0  0  0  0  0  0  0  0  0  0  0  0  0  0  0  0  0  0  0
 ITRead=  0  0  0  0  0  0  0  0  0  0  0  0
 MicOpt= -1 -1 -1 -1 -1 -1 -1 -1 -1 -1 -1 -1 -1 -1 -1 -1 -1 -1 -1 -1
 MicOpt= -1 -1 -1 -1 -1 -1 -1 -1 -1 -1 -1 -1 -1 -1 -1 -1 -1 -1 -1 -1
 MicOpt= -1 -1 -1 -1 -1 -1 -1 -1 -1 -1 -1 -1 -1 -1 -1 -1 -1 -1 -1 -1
 MicOpt= -1 -1 -1 -1 -1 -1 -1 -1 -1 -1 -1 -1
 NAtoms=     72 NQM=       72 NQMF=       0 NMMI=      0 NMMIF=      0
                NMic=       0 NMicF=      0.
                    Isotopes and Nuclear Properties:
 (Nuclear quadrupole moments (NQMom) in fm**2, nuclear magnetic moments (NMagM)
  in nuclear magnetons)

  Atom         1           2           3           4           5           6           7           8           9          10
 IAtWgt=          12          12          12          12          14          12          12          12          12          12
 AtmWgt=  12.0000000  12.0000000  12.0000000  12.0000000  14.0030740  12.0000000  12.0000000  12.0000000  12.0000000  12.0000000
 NucSpn=           0           0           0           0           2           0           0           0           0           0
 AtZEff=  -0.0000000  -0.0000000  -0.0000000  -0.0000000  -0.0000000  -0.0000000  -0.0000000  -0.0000000  -0.0000000  -0.0000000
 NQMom=    0.0000000   0.0000000   0.0000000   0.0000000   2.0440000   0.0000000   0.0000000   0.0000000   0.0000000   0.0000000
 NMagM=    0.0000000   0.0000000   0.0000000   0.0000000   0.4037610   0.0000000   0.0000000   0.0000000   0.0000000   0.0000000
 AtZNuc=   6.0000000   6.0000000   6.0000000   6.0000000   7.0000000   6.0000000   6.0000000   6.0000000   6.0000000   6.0000000

  Atom        11          12          13          14          15          16          17          18          19          20
 IAtWgt=          12          12          12          12          12          14          12          12          12          12
 AtmWgt=  12.0000000  12.0000000  12.0000000  12.0000000  12.0000000  14.0030740  12.0000000  12.0000000  12.0000000  12.0000000
 NucSpn=           0           0           0           0           0           2           0           0           0           0
 AtZEff=  -0.0000000  -0.0000000  -0.0000000  -0.0000000  -0.0000000  -0.0000000  -0.0000000  -0.0000000  -0.0000000  -0.0000000
 NQMom=    0.0000000   0.0000000   0.0000000   0.0000000   0.0000000   2.0440000   0.0000000   0.0000000   0.0000000   0.0000000
 NMagM=    0.0000000   0.0000000   0.0000000   0.0000000   0.0000000   0.4037610   0.0000000   0.0000000   0.0000000   0.0000000
 AtZNuc=   6.0000000   6.0000000   6.0000000   6.0000000   6.0000000   7.0000000   6.0000000   6.0000000   6.0000000   6.0000000

  Atom        21          22          23          24          25          26          27          28          29          30
 IAtWgt=          12          12          12          12          12          12          14          12          12          12
 AtmWgt=  12.0000000  12.0000000  12.0000000  12.0000000  12.0000000  12.0000000  14.0030740  12.0000000  12.0000000  12.0000000
 NucSpn=           0           0           0           0           0           0           2           0           0           0
 AtZEff=  -0.0000000  -0.0000000  -0.0000000  -0.0000000  -0.0000000  -0.0000000  -0.0000000  -0.0000000  -0.0000000  -0.0000000
 NQMom=    0.0000000   0.0000000   0.0000000   0.0000000   0.0000000   0.0000000   2.0440000   0.0000000   0.0000000   0.0000000
 NMagM=    0.0000000   0.0000000   0.0000000   0.0000000   0.0000000   0.0000000   0.4037610   0.0000000   0.0000000   0.0000000
 AtZNuc=   6.0000000   6.0000000   6.0000000   6.0000000   6.0000000   6.0000000   7.0000000   6.0000000   6.0000000   6.0000000

  Atom        31          32          33          34          35          36          37          38          39          40
 IAtWgt=          12          12          12          12          12          12          12          12          12          12
 AtmWgt=  12.0000000  12.0000000  12.0000000  12.0000000  12.0000000  12.0000000  12.0000000  12.0000000  12.0000000  12.0000000
 NucSpn=           0           0           0           0           0           0           0           0           0           0
 AtZEff=  -0.0000000  -0.0000000  -0.0000000  -0.0000000  -0.0000000  -0.0000000  -0.0000000  -0.0000000  -0.0000000  -0.0000000
 NQMom=    0.0000000   0.0000000   0.0000000   0.0000000   0.0000000   0.0000000   0.0000000   0.0000000   0.0000000   0.0000000
 NMagM=    0.0000000   0.0000000   0.0000000   0.0000000   0.0000000   0.0000000   0.0000000   0.0000000   0.0000000   0.0000000
 AtZNuc=   6.0000000   6.0000000   6.0000000   6.0000000   6.0000000   6.0000000   6.0000000   6.0000000   6.0000000   6.0000000

  Atom        41          42          43          44          45          46          47          48          49          50
 IAtWgt=          12          12          12          12          12           1           1           1           1           1
 AtmWgt=  12.0000000  12.0000000  12.0000000  12.0000000  12.0000000   1.0078250   1.0078250   1.0078250   1.0078250   1.0078250
 NucSpn=           0           0           0           0           0           1           1           1           1           1
 AtZEff=  -0.0000000  -0.0000000  -0.0000000  -0.0000000  -0.0000000  -0.0000000  -0.0000000  -0.0000000  -0.0000000  -0.0000000
 NQMom=    0.0000000   0.0000000   0.0000000   0.0000000   0.0000000   0.0000000   0.0000000   0.0000000   0.0000000   0.0000000
 NMagM=    0.0000000   0.0000000   0.0000000   0.0000000   0.0000000   2.7928460   2.7928460   2.7928460   2.7928460   2.7928460
 AtZNuc=   6.0000000   6.0000000   6.0000000   6.0000000   6.0000000   1.0000000   1.0000000   1.0000000   1.0000000   1.0000000

  Atom        51          52          53          54          55          56          57          58          59          60
 IAtWgt=           1           1           1           1           1           1           1           1           1           1
 AtmWgt=   1.0078250   1.0078250   1.0078250   1.0078250   1.0078250   1.0078250   1.0078250   1.0078250   1.0078250   1.0078250
 NucSpn=           1           1           1           1           1           1           1           1           1           1
 AtZEff=  -0.0000000  -0.0000000  -0.0000000  -0.0000000  -0.0000000  -0.0000000  -0.0000000  -0.0000000  -0.0000000  -0.0000000
 NQMom=    0.0000000   0.0000000   0.0000000   0.0000000   0.0000000   0.0000000   0.0000000   0.0000000   0.0000000   0.0000000
 NMagM=    2.7928460   2.7928460   2.7928460   2.7928460   2.7928460   2.7928460   2.7928460   2.7928460   2.7928460   2.7928460
 AtZNuc=   1.0000000   1.0000000   1.0000000   1.0000000   1.0000000   1.0000000   1.0000000   1.0000000   1.0000000   1.0000000

  Atom        61          62          63          64          65          66          67          68          69          70
 IAtWgt=           1           1           1           1           1           1           1           1           1           1
 AtmWgt=   1.0078250   1.0078250   1.0078250   1.0078250   1.0078250   1.0078250   1.0078250   1.0078250   1.0078250   1.0078250
 NucSpn=           1           1           1           1           1           1           1           1           1           1
 AtZEff=  -0.0000000  -0.0000000  -0.0000000  -0.0000000  -0.0000000  -0.0000000  -0.0000000  -0.0000000  -0.0000000  -0.0000000
 NQMom=    0.0000000   0.0000000   0.0000000   0.0000000   0.0000000   0.0000000   0.0000000   0.0000000   0.0000000   0.0000000
 NMagM=    2.7928460   2.7928460   2.7928460   2.7928460   2.7928460   2.7928460   2.7928460   2.7928460   2.7928460   2.7928460
 AtZNuc=   1.0000000   1.0000000   1.0000000   1.0000000   1.0000000   1.0000000   1.0000000   1.0000000   1.0000000   1.0000000

  Atom        71          72
 IAtWgt=           1           1
 AtmWgt=   1.0078250   1.0078250
 NucSpn=           1           1
 AtZEff=  -0.0000000  -0.0000000
 NQMom=    0.0000000   0.0000000
 NMagM=    2.7928460   2.7928460
 AtZNuc=   1.0000000   1.0000000
 Leave Link  101 at Fri Jun  5 17:00:45 2026, MaxMem=  2516582400 cpu:               0.1 elap:               0.2
 (Enter /apl/gaussian/16c02/g16/l103.exe)

 GradGradGradGradGradGradGradGradGradGradGradGradGradGradGradGradGradGrad
 Berny optimization.
 Initialization pass.
                           ----------------------------
                           !    Initial Parameters    !
                           ! (Angstroms and Degrees)  !
 --------------------------                            --------------------------
 ! Name  Definition              Value          Derivative Info.                !
 --------------------------------------------------------------------------------
 ! R1    R(1,2)                  1.3942         estimate D2E/DX2                !
 ! R2    R(1,45)                 1.3941         estimate D2E/DX2                !
 ! R3    R(1,46)                 1.0872         estimate D2E/DX2                !
 ! R4    R(2,3)                  1.3964         estimate D2E/DX2                !
 ! R5    R(2,47)                 1.0872         estimate D2E/DX2                !
 ! R6    R(3,4)                  1.4006         estimate D2E/DX2                !
 ! R7    R(3,48)                 1.0874         estimate D2E/DX2                !
 ! R8    R(4,5)                  1.4273         estimate D2E/DX2                !
 ! R9    R(4,44)                 1.4007         estimate D2E/DX2                !
 ! R10   R(5,6)                  1.3971         estimate D2E/DX2                !
 ! R11   R(5,43)                 1.398          estimate D2E/DX2                !
 ! R12   R(6,7)                  1.4112         estimate D2E/DX2                !
 ! R13   R(6,11)                 1.3969         estimate D2E/DX2                !
 ! R14   R(7,8)                  1.398          estimate D2E/DX2                !
 ! R15   R(7,49)                 1.0857         estimate D2E/DX2                !
 ! R16   R(8,9)                  1.3881         estimate D2E/DX2                !
 ! R17   R(8,50)                 1.0877         estimate D2E/DX2                !
 ! R18   R(9,10)                 1.3967         estimate D2E/DX2                !
 ! R19   R(9,51)                 1.087          estimate D2E/DX2                !
 ! R20   R(10,11)                1.4128         estimate D2E/DX2                !
 ! R21   R(10,52)                1.0865         estimate D2E/DX2                !
 ! R22   R(11,12)                1.4252         estimate D2E/DX2                !
 ! R23   R(12,13)                1.412          estimate D2E/DX2                !
 ! R24   R(12,43)                1.3962         estimate D2E/DX2                !
 ! R25   R(13,14)                1.398          estimate D2E/DX2                !
 ! R26   R(13,53)                1.0869         estimate D2E/DX2                !
 ! R27   R(14,15)                1.3937         estimate D2E/DX2                !
 ! R28   R(14,54)                1.0877         estimate D2E/DX2                !
 ! R29   R(15,16)                1.428          estimate D2E/DX2                !
 ! R30   R(15,42)                1.4042         estimate D2E/DX2                !
 ! R31   R(16,17)                1.3968         estimate D2E/DX2                !
 ! R32   R(16,41)                1.3975         estimate D2E/DX2                !
 ! R33   R(17,18)                1.4111         estimate D2E/DX2                !
 ! R34   R(17,22)                1.3966         estimate D2E/DX2                !
 ! R35   R(18,19)                1.3978         estimate D2E/DX2                !
 ! R36   R(18,55)                1.0854         estimate D2E/DX2                !
 ! R37   R(19,20)                1.3882         estimate D2E/DX2                !
 ! R38   R(19,56)                1.0876         estimate D2E/DX2                !
 ! R39   R(20,21)                1.3969         estimate D2E/DX2                !
 ! R40   R(20,57)                1.087          estimate D2E/DX2                !
 ! R41   R(21,22)                1.4127         estimate D2E/DX2                !
 ! R42   R(21,58)                1.0864         estimate D2E/DX2                !
 ! R43   R(22,23)                1.4255         estimate D2E/DX2                !
 ! R44   R(23,24)                1.412          estimate D2E/DX2                !
 ! R45   R(23,41)                1.3962         estimate D2E/DX2                !
 ! R46   R(24,25)                1.3984         estimate D2E/DX2                !
 ! R47   R(24,59)                1.0868         estimate D2E/DX2                !
 ! R48   R(25,26)                1.3941         estimate D2E/DX2                !
 ! R49   R(25,60)                1.0877         estimate D2E/DX2                !
 ! R50   R(26,27)                1.4286         estimate D2E/DX2                !
 ! R51   R(26,40)                1.404          estimate D2E/DX2                !
 ! R52   R(27,28)                1.3975         estimate D2E/DX2                !
 ! R53   R(27,39)                1.3975         estimate D2E/DX2                !
 ! R54   R(28,29)                1.4113         estimate D2E/DX2                !
 ! R55   R(28,33)                1.397          estimate D2E/DX2                !
 ! R56   R(29,30)                1.398          estimate D2E/DX2                !
 ! R57   R(29,61)                1.0857         estimate D2E/DX2                !
 ! R58   R(30,31)                1.3881         estimate D2E/DX2                !
 ! R59   R(30,62)                1.0876         estimate D2E/DX2                !
 ! R60   R(31,32)                1.3967         estimate D2E/DX2                !
 ! R61   R(31,63)                1.0869         estimate D2E/DX2                !
 ! R62   R(32,33)                1.4128         estimate D2E/DX2                !
 ! R63   R(32,64)                1.0864         estimate D2E/DX2                !
 ! R64   R(33,34)                1.4254         estimate D2E/DX2                !
 ! R65   R(34,35)                1.4129         estimate D2E/DX2                !
 ! R66   R(34,39)                1.397          estimate D2E/DX2                !
 ! R67   R(35,36)                1.3967         estimate D2E/DX2                !
 ! R68   R(35,65)                1.0863         estimate D2E/DX2                !
 ! R69   R(36,37)                1.388          estimate D2E/DX2                !
 ! R70   R(36,66)                1.0869         estimate D2E/DX2                !
 ! R71   R(37,38)                1.3979         estimate D2E/DX2                !
 ! R72   R(37,67)                1.0877         estimate D2E/DX2                !
 ! R73   R(38,39)                1.4115         estimate D2E/DX2                !
 ! R74   R(38,68)                1.0859         estimate D2E/DX2                !
 ! R75   R(40,41)                1.4131         estimate D2E/DX2                !
 ! R76   R(40,69)                1.0854         estimate D2E/DX2                !
 ! R77   R(42,43)                1.4132         estimate D2E/DX2                !
 ! R78   R(42,70)                1.0863         estimate D2E/DX2                !
 ! R79   R(44,45)                1.3962         estimate D2E/DX2                !
 ! R80   R(44,71)                1.0868         estimate D2E/DX2                !
 ! R81   R(45,72)                1.0872         estimate D2E/DX2                !
 ! A1    A(2,1,45)             120.0413         estimate D2E/DX2                !
 ! A2    A(2,1,46)             119.9785         estimate D2E/DX2                !
 ! A3    A(45,1,46)            119.9801         estimate D2E/DX2                !
 ! A4    A(1,2,3)              120.1399         estimate D2E/DX2                !
 ! A5    A(1,2,47)             119.9273         estimate D2E/DX2                !
 ! A6    A(3,2,47)             119.9302         estimate D2E/DX2                !
 ! A7    A(2,3,4)              119.9758         estimate D2E/DX2                !
 ! A8    A(2,3,48)             118.6589         estimate D2E/DX2                !
 ! A9    A(4,3,48)             121.31           estimate D2E/DX2                !
 ! A10   A(3,4,5)              120.1069         estimate D2E/DX2                !
 ! A11   A(3,4,44)             119.7216         estimate D2E/DX2                !
 ! A12   A(5,4,44)             120.1713         estimate D2E/DX2                !
 ! A13   A(4,5,6)              125.3472         estimate D2E/DX2                !
 ! A14   A(4,5,43)             125.3079         estimate D2E/DX2                !
 ! A15   A(6,5,43)             109.3449         estimate D2E/DX2                !
 ! A16   A(5,6,7)              131.6615         estimate D2E/DX2                !
 ! A17   A(5,6,11)             107.5022         estimate D2E/DX2                !
 ! A18   A(7,6,11)             120.7477         estimate D2E/DX2                !
 ! A19   A(6,7,8)              118.9331         estimate D2E/DX2                !
 ! A20   A(6,7,49)             121.6451         estimate D2E/DX2                !
 ! A21   A(8,7,49)             119.4122         estimate D2E/DX2                !
 ! A22   A(7,8,9)              120.8174         estimate D2E/DX2                !
 ! A23   A(7,8,50)             119.4663         estimate D2E/DX2                !
 ! A24   A(9,8,50)             119.7139         estimate D2E/DX2                !
 ! A25   A(8,9,10)             120.2535         estimate D2E/DX2                !
 ! A26   A(8,9,51)             120.0079         estimate D2E/DX2                !
 ! A27   A(10,9,51)            119.7319         estimate D2E/DX2                !
 ! A28   A(9,10,11)            119.9952         estimate D2E/DX2                !
 ! A29   A(9,10,52)            119.8048         estimate D2E/DX2                !
 ! A30   A(11,10,52)           120.1972         estimate D2E/DX2                !
 ! A31   A(6,11,10)            119.179          estimate D2E/DX2                !
 ! A32   A(6,11,12)            107.8192         estimate D2E/DX2                !
 ! A33   A(10,11,12)           133.0004         estimate D2E/DX2                !
 ! A34   A(11,12,13)           132.9439         estimate D2E/DX2                !
 ! A35   A(11,12,43)           107.8389         estimate D2E/DX2                !
 ! A36   A(13,12,43)           119.2154         estimate D2E/DX2                !
 ! A37   A(12,13,14)           120.1644         estimate D2E/DX2                !
 ! A38   A(12,13,53)           120.1042         estimate D2E/DX2                !
 ! A39   A(14,13,53)           119.7312         estimate D2E/DX2                !
 ! A40   A(13,14,15)           120.2276         estimate D2E/DX2                !
 ! A41   A(13,14,54)           118.3657         estimate D2E/DX2                !
 ! A42   A(15,14,54)           121.3867         estimate D2E/DX2                !
 ! A43   A(14,15,16)           119.9732         estimate D2E/DX2                !
 ! A44   A(14,15,42)           120.5407         estimate D2E/DX2                !
 ! A45   A(16,15,42)           119.483          estimate D2E/DX2                !
 ! A46   A(15,16,17)           125.2524         estimate D2E/DX2                !
 ! A47   A(15,16,41)           125.3647         estimate D2E/DX2                !
 ! A48   A(17,16,41)           109.3796         estimate D2E/DX2                !
 ! A49   A(16,17,18)           131.6022         estimate D2E/DX2                !
 ! A50   A(16,17,22)           107.4972         estimate D2E/DX2                !
 ! A51   A(18,17,22)           120.814          estimate D2E/DX2                !
 ! A52   A(17,18,19)           118.9101         estimate D2E/DX2                !
 ! A53   A(17,18,55)           121.5748         estimate D2E/DX2                !
 ! A54   A(19,18,55)           119.5044         estimate D2E/DX2                !
 ! A55   A(18,19,20)           120.7979         estimate D2E/DX2                !
 ! A56   A(18,19,56)           119.4985         estimate D2E/DX2                !
 ! A57   A(20,19,56)           119.7007         estimate D2E/DX2                !
 ! A58   A(19,20,21)           120.2769         estimate D2E/DX2                !
 ! A59   A(19,20,57)           120.002          estimate D2E/DX2                !
 ! A60   A(21,20,57)           119.7139         estimate D2E/DX2                !
 ! A61   A(20,21,22)           119.9869         estimate D2E/DX2                !
 ! A62   A(20,21,58)           119.8136         estimate D2E/DX2                !
 ! A63   A(22,21,58)           120.1967         estimate D2E/DX2                !
 ! A64   A(17,22,21)           119.1413         estimate D2E/DX2                !
 ! A65   A(17,22,23)           107.8023         estimate D2E/DX2                !
 ! A66   A(21,22,23)           133.0535         estimate D2E/DX2                !
 ! A67   A(22,23,24)           132.9795         estimate D2E/DX2                !
 ! A68   A(22,23,41)           107.8422         estimate D2E/DX2                !
 ! A69   A(24,23,41)           119.1757         estimate D2E/DX2                !
 ! A70   A(23,24,25)           120.1536         estimate D2E/DX2                !
 ! A71   A(23,24,59)           120.0988         estimate D2E/DX2                !
 ! A72   A(25,24,59)           119.7378         estimate D2E/DX2                !
 ! A73   A(24,25,26)           120.2621         estimate D2E/DX2                !
 ! A74   A(24,25,60)           118.3601         estimate D2E/DX2                !
 ! A75   A(26,25,60)           121.2849         estimate D2E/DX2                !
 ! A76   A(25,26,27)           119.8737         estimate D2E/DX2                !
 ! A77   A(25,26,40)           120.4958         estimate D2E/DX2                !
 ! A78   A(27,26,40)           119.6294         estimate D2E/DX2                !
 ! A79   A(26,27,28)           125.2687         estimate D2E/DX2                !
 ! A80   A(26,27,39)           125.3608         estimate D2E/DX2                !
 ! A81   A(28,27,39)           109.3702         estimate D2E/DX2                !
 ! A82   A(27,28,29)           131.6693         estimate D2E/DX2                !
 ! A83   A(27,28,33)           107.489          estimate D2E/DX2                !
 ! A84   A(29,28,33)           120.7495         estimate D2E/DX2                !
 ! A85   A(28,29,30)           118.935          estimate D2E/DX2                !
 ! A86   A(28,29,61)           121.642          estimate D2E/DX2                !
 ! A87   A(30,29,61)           119.4136         estimate D2E/DX2                !
 ! A88   A(29,30,31)           120.817          estimate D2E/DX2                !
 ! A89   A(29,30,62)           119.4613         estimate D2E/DX2                !
 ! A90   A(31,30,62)           119.7193         estimate D2E/DX2                !
 ! A91   A(30,31,32)           120.2498         estimate D2E/DX2                !
 ! A92   A(30,31,63)           120.0123         estimate D2E/DX2                !
 ! A93   A(32,31,63)           119.7312         estimate D2E/DX2                !
 ! A94   A(31,32,33)           120.0078         estimate D2E/DX2                !
 ! A95   A(31,32,64)           119.8422         estimate D2E/DX2                !
 ! A96   A(33,32,64)           120.1471         estimate D2E/DX2                !
 ! A97   A(28,33,32)           119.1678         estimate D2E/DX2                !
 ! A98   A(28,33,34)           107.826          estimate D2E/DX2                !
 ! A99   A(32,33,34)           133.0036         estimate D2E/DX2                !
 ! A100  A(33,34,35)           133.0035         estimate D2E/DX2                !
 ! A101  A(33,34,39)           107.8235         estimate D2E/DX2                !
 ! A102  A(35,34,39)           119.171          estimate D2E/DX2                !
 ! A103  A(34,35,36)           120.0108         estimate D2E/DX2                !
 ! A104  A(34,35,65)           120.1564         estimate D2E/DX2                !
 ! A105  A(36,35,65)           119.8303         estimate D2E/DX2                !
 ! A106  A(35,36,37)           120.2477         estimate D2E/DX2                !
 ! A107  A(35,36,66)           119.7514         estimate D2E/DX2                !
 ! A108  A(37,36,66)           119.9943         estimate D2E/DX2                !
 ! A109  A(36,37,38)           120.8169         estimate D2E/DX2                !
 ! A110  A(36,37,67)           119.7585         estimate D2E/DX2                !
 ! A111  A(38,37,67)           119.4223         estimate D2E/DX2                !
 ! A112  A(37,38,39)           118.9457         estimate D2E/DX2                !
 ! A113  A(37,38,68)           119.3476         estimate D2E/DX2                !
 ! A114  A(39,38,68)           121.6988         estimate D2E/DX2                !
 ! A115  A(27,39,34)           107.4878         estimate D2E/DX2                !
 ! A116  A(27,39,38)           131.6903         estimate D2E/DX2                !
 ! A117  A(34,39,38)           120.7338         estimate D2E/DX2                !
 ! A118  A(26,40,41)           118.9233         estimate D2E/DX2                !
 ! A119  A(26,40,69)           120.5817         estimate D2E/DX2                !
 ! A120  A(41,40,69)           120.4751         estimate D2E/DX2                !
 ! A121  A(16,41,23)           107.4732         estimate D2E/DX2                !
 ! A122  A(16,41,40)           131.5283         estimate D2E/DX2                !
 ! A123  A(23,41,40)           120.917          estimate D2E/DX2                !
 ! A124  A(15,42,43)           118.9241         estimate D2E/DX2                !
 ! A125  A(15,42,70)           120.519          estimate D2E/DX2                !
 ! A126  A(43,42,70)           120.4385         estimate D2E/DX2                !
 ! A127  A(5,43,12)            107.4925         estimate D2E/DX2                !
 ! A128  A(5,43,42)            131.5338         estimate D2E/DX2                !
 ! A129  A(12,43,42)           120.8573         estimate D2E/DX2                !
 ! A130  A(4,44,45)            119.9992         estimate D2E/DX2                !
 ! A131  A(4,44,71)            121.325          estimate D2E/DX2                !
 ! A132  A(45,44,71)           118.6249         estimate D2E/DX2                !
 ! A133  A(1,45,44)            120.1219         estimate D2E/DX2                !
 ! A134  A(1,45,72)            119.9199         estimate D2E/DX2                !
 ! A135  A(44,45,72)           119.9567         estimate D2E/DX2                !
 ! D1    D(45,1,2,3)            -0.0278         estimate D2E/DX2                !
 ! D2    D(45,1,2,47)          179.3784         estimate D2E/DX2                !
 ! D3    D(46,1,2,3)          -179.9863         estimate D2E/DX2                !
 ! D4    D(46,1,2,47)           -0.58           estimate D2E/DX2                !
 ! D5    D(2,1,45,44)           -0.0856         estimate D2E/DX2                !
 ! D6    D(2,1,45,72)          179.4673         estimate D2E/DX2                !
 ! D7    D(46,1,45,44)         179.8728         estimate D2E/DX2                !
 ! D8    D(46,1,45,72)          -0.5742         estimate D2E/DX2                !
 ! D9    D(1,2,3,4)              0.1537         estimate D2E/DX2                !
 ! D10   D(1,2,3,48)           177.4848         estimate D2E/DX2                !
 ! D11   D(47,2,3,4)          -179.2525         estimate D2E/DX2                !
 ! D12   D(47,2,3,48)           -1.9215         estimate D2E/DX2                !
 ! D13   D(2,3,4,5)            179.6642         estimate D2E/DX2                !
 ! D14   D(2,3,4,44)            -0.1657         estimate D2E/DX2                !
 ! D15   D(48,3,4,5)             2.4054         estimate D2E/DX2                !
 ! D16   D(48,3,4,44)         -177.4245         estimate D2E/DX2                !
 ! D17   D(3,4,5,6)             44.0212         estimate D2E/DX2                !
 ! D18   D(3,4,5,43)          -135.9703         estimate D2E/DX2                !
 ! D19   D(44,4,5,6)          -136.1496         estimate D2E/DX2                !
 ! D20   D(44,4,5,43)           43.8589         estimate D2E/DX2                !
 ! D21   D(3,4,44,45)            0.0528         estimate D2E/DX2                !
 ! D22   D(3,4,44,71)         -177.3187         estimate D2E/DX2                !
 ! D23   D(5,4,44,45)         -179.777          estimate D2E/DX2                !
 ! D24   D(5,4,44,71)            2.8514         estimate D2E/DX2                !
 ! D25   D(4,5,6,7)              3.9627         estimate D2E/DX2                !
 ! D26   D(4,5,6,11)          -179.5365         estimate D2E/DX2                !
 ! D27   D(43,5,6,7)          -176.0446         estimate D2E/DX2                !
 ! D28   D(43,5,6,11)            0.4561         estimate D2E/DX2                !
 ! D29   D(4,5,43,12)          179.7379         estimate D2E/DX2                !
 ! D30   D(4,5,43,42)            3.7417         estimate D2E/DX2                !
 ! D31   D(6,5,43,12)           -0.2547         estimate D2E/DX2                !
 ! D32   D(6,5,43,42)         -176.251          estimate D2E/DX2                !
 ! D33   D(5,6,7,8)            179.0596         estimate D2E/DX2                !
 ! D34   D(5,6,7,49)             0.1985         estimate D2E/DX2                !
 ! D35   D(11,6,7,8)             2.9433         estimate D2E/DX2                !
 ! D36   D(11,6,7,49)         -175.9178         estimate D2E/DX2                !
 ! D37   D(5,6,11,10)          179.9107         estimate D2E/DX2                !
 ! D38   D(5,6,11,12)           -0.4748         estimate D2E/DX2                !
 ! D39   D(7,6,11,10)           -3.1306         estimate D2E/DX2                !
 ! D40   D(7,6,11,12)          176.4838         estimate D2E/DX2                !
 ! D41   D(6,7,8,9)             -0.9365         estimate D2E/DX2                !
 ! D42   D(6,7,8,50)           179.623          estimate D2E/DX2                !
 ! D43   D(49,7,8,9)           177.9505         estimate D2E/DX2                !
 ! D44   D(49,7,8,50)           -1.49           estimate D2E/DX2                !
 ! D45   D(7,8,9,10)            -0.8376         estimate D2E/DX2                !
 ! D46   D(7,8,9,51)          -179.8964         estimate D2E/DX2                !
 ! D47   D(50,8,9,10)          178.6016         estimate D2E/DX2                !
 ! D48   D(50,8,9,51)           -0.4572         estimate D2E/DX2                !
 ! D49   D(8,9,10,11)            0.6469         estimate D2E/DX2                !
 ! D50   D(8,9,10,52)         -178.7407         estimate D2E/DX2                !
 ! D51   D(51,9,10,11)         179.7083         estimate D2E/DX2                !
 ! D52   D(51,9,10,52)           0.3207         estimate D2E/DX2                !
 ! D53   D(9,10,11,6)            1.3249         estimate D2E/DX2                !
 ! D54   D(9,10,11,12)        -178.1731         estimate D2E/DX2                !
 ! D55   D(52,10,11,6)        -179.2899         estimate D2E/DX2                !
 ! D56   D(52,10,11,12)          1.2121         estimate D2E/DX2                !
 ! D57   D(6,11,12,13)         179.8243         estimate D2E/DX2                !
 ! D58   D(6,11,12,43)           0.3229         estimate D2E/DX2                !
 ! D59   D(10,11,12,13)         -0.636          estimate D2E/DX2                !
 ! D60   D(10,11,12,43)        179.8625         estimate D2E/DX2                !
 ! D61   D(11,12,13,14)       -178.0039         estimate D2E/DX2                !
 ! D62   D(11,12,13,53)          1.8252         estimate D2E/DX2                !
 ! D63   D(43,12,13,14)          1.4524         estimate D2E/DX2                !
 ! D64   D(43,12,13,53)       -178.7185         estimate D2E/DX2                !
 ! D65   D(11,12,43,5)          -0.0431         estimate D2E/DX2                !
 ! D66   D(11,12,43,42)        176.4663         estimate D2E/DX2                !
 ! D67   D(13,12,43,5)        -179.625          estimate D2E/DX2                !
 ! D68   D(13,12,43,42)         -3.1155         estimate D2E/DX2                !
 ! D69   D(12,13,14,15)          0.5678         estimate D2E/DX2                !
 ! D70   D(12,13,14,54)       -177.8336         estimate D2E/DX2                !
 ! D71   D(53,13,14,15)       -179.2619         estimate D2E/DX2                !
 ! D72   D(53,13,14,54)          2.3367         estimate D2E/DX2                !
 ! D73   D(13,14,15,16)        178.4124         estimate D2E/DX2                !
 ! D74   D(13,14,15,42)         -0.9509         estimate D2E/DX2                !
 ! D75   D(54,14,15,16)         -3.2354         estimate D2E/DX2                !
 ! D76   D(54,14,15,42)        177.4013         estimate D2E/DX2                !
 ! D77   D(14,15,16,17)        135.7785         estimate D2E/DX2                !
 ! D78   D(14,15,16,41)        -44.9554         estimate D2E/DX2                !
 ! D79   D(42,15,16,17)        -44.8514         estimate D2E/DX2                !
 ! D80   D(42,15,16,41)        134.4147         estimate D2E/DX2                !
 ! D81   D(14,15,42,43)         -0.6772         estimate D2E/DX2                !
 ! D82   D(14,15,42,70)        175.3839         estimate D2E/DX2                !
 ! D83   D(16,15,42,43)        179.9563         estimate D2E/DX2                !
 ! D84   D(16,15,42,70)         -3.9825         estimate D2E/DX2                !
 ! D85   D(15,16,17,18)         -4.3203         estimate D2E/DX2                !
 ! D86   D(15,16,17,22)        179.1371         estimate D2E/DX2                !
 ! D87   D(41,16,17,18)        176.3142         estimate D2E/DX2                !
 ! D88   D(41,16,17,22)         -0.2285         estimate D2E/DX2                !
 ! D89   D(15,16,41,23)       -179.6166         estimate D2E/DX2                !
 ! D90   D(15,16,41,40)         -2.9669         estimate D2E/DX2                !
 ! D91   D(17,16,41,23)         -0.2519         estimate D2E/DX2                !
 ! D92   D(17,16,41,40)        176.3978         estimate D2E/DX2                !
 ! D93   D(16,17,18,19)       -179.1021         estimate D2E/DX2                !
 ! D94   D(16,17,18,55)         -0.3039         estimate D2E/DX2                !
 ! D95   D(22,17,18,19)         -2.942          estimate D2E/DX2                !
 ! D96   D(22,17,18,55)        175.8561         estimate D2E/DX2                !
 ! D97   D(16,17,22,21)       -179.9279         estimate D2E/DX2                !
 ! D98   D(16,17,22,23)          0.6101         estimate D2E/DX2                !
 ! D99   D(18,17,22,21)          3.0819         estimate D2E/DX2                !
 ! D100  D(18,17,22,23)       -176.3801         estimate D2E/DX2                !
 ! D101  D(17,18,19,20)          0.9582         estimate D2E/DX2                !
 ! D102  D(17,18,19,56)       -179.6631         estimate D2E/DX2                !
 ! D103  D(55,18,19,20)       -177.8653         estimate D2E/DX2                !
 ! D104  D(55,18,19,56)          1.5134         estimate D2E/DX2                !
 ! D105  D(18,19,20,21)          0.8381         estimate D2E/DX2                !
 ! D106  D(18,19,20,57)        179.8582         estimate D2E/DX2                !
 ! D107  D(56,19,20,21)       -178.5393         estimate D2E/DX2                !
 ! D108  D(56,19,20,57)          0.4808         estimate D2E/DX2                !
 ! D109  D(19,20,21,22)         -0.6954         estimate D2E/DX2                !
 ! D110  D(19,20,21,58)        178.6964         estimate D2E/DX2                !
 ! D111  D(57,20,21,22)       -179.7184         estimate D2E/DX2                !
 ! D112  D(57,20,21,58)         -0.3266         estimate D2E/DX2                !
 ! D113  D(20,21,22,17)         -1.2515         estimate D2E/DX2                !
 ! D114  D(20,21,22,23)        178.0474         estimate D2E/DX2                !
 ! D115  D(58,21,22,17)        179.3591         estimate D2E/DX2                !
 ! D116  D(58,21,22,23)         -1.342          estimate D2E/DX2                !
 ! D117  D(17,22,23,24)        179.8522         estimate D2E/DX2                !
 ! D118  D(17,22,23,41)         -0.7699         estimate D2E/DX2                !
 ! D119  D(21,22,23,24)          0.4953         estimate D2E/DX2                !
 ! D120  D(21,22,23,41)        179.8732         estimate D2E/DX2                !
 ! D121  D(22,23,24,25)        178.1874         estimate D2E/DX2                !
 ! D122  D(22,23,24,59)         -0.6689         estimate D2E/DX2                !
 ! D123  D(41,23,24,25)         -1.1344         estimate D2E/DX2                !
 ! D124  D(41,23,24,59)       -179.9907         estimate D2E/DX2                !
 ! D125  D(22,23,41,16)          0.6245         estimate D2E/DX2                !
 ! D126  D(22,23,41,40)       -176.4524         estimate D2E/DX2                !
 ! D127  D(24,23,41,16)       -179.8967         estimate D2E/DX2                !
 ! D128  D(24,23,41,40)          3.0264         estimate D2E/DX2                !
 ! D129  D(23,24,25,26)         -0.8164         estimate D2E/DX2                !
 ! D130  D(23,24,25,60)       -177.3564         estimate D2E/DX2                !
 ! D131  D(59,24,25,26)        178.0441         estimate D2E/DX2                !
 ! D132  D(59,24,25,60)          1.5041         estimate D2E/DX2                !
 ! D133  D(24,25,26,27)       -178.7261         estimate D2E/DX2                !
 ! D134  D(24,25,26,40)          0.8993         estimate D2E/DX2                !
 ! D135  D(60,25,26,27)         -2.2889         estimate D2E/DX2                !
 ! D136  D(60,25,26,40)        177.3365         estimate D2E/DX2                !
 ! D137  D(25,26,27,28)        -44.6832         estimate D2E/DX2                !
 ! D138  D(25,26,27,39)        135.5706         estimate D2E/DX2                !
 ! D139  D(40,26,27,28)        135.6881         estimate D2E/DX2                !
 ! D140  D(40,26,27,39)        -44.0581         estimate D2E/DX2                !
 ! D141  D(25,26,40,41)          0.9524         estimate D2E/DX2                !
 ! D142  D(25,26,40,69)        179.3375         estimate D2E/DX2                !
 ! D143  D(27,26,40,41)       -179.4213         estimate D2E/DX2                !
 ! D144  D(27,26,40,69)         -1.0362         estimate D2E/DX2                !
 ! D145  D(26,27,28,29)         -3.5471         estimate D2E/DX2                !
 ! D146  D(26,27,28,33)       -179.976          estimate D2E/DX2                !
 ! D147  D(39,27,28,29)        176.2335         estimate D2E/DX2                !
 ! D148  D(39,27,28,33)         -0.1954         estimate D2E/DX2                !
 ! D149  D(26,27,39,34)        179.588          estimate D2E/DX2                !
 ! D150  D(26,27,39,38)         -3.9025         estimate D2E/DX2                !
 ! D151  D(28,27,39,34)         -0.1924         estimate D2E/DX2                !
 ! D152  D(28,27,39,38)        176.3171         estimate D2E/DX2                !
 ! D153  D(27,28,29,30)       -178.9819         estimate D2E/DX2                !
 ! D154  D(27,28,29,61)         -0.1059         estimate D2E/DX2                !
 ! D155  D(33,28,29,30)         -2.9457         estimate D2E/DX2                !
 ! D156  D(33,28,29,61)        175.9303         estimate D2E/DX2                !
 ! D157  D(27,28,33,32)        179.9874         estimate D2E/DX2                !
 ! D158  D(27,28,33,34)          0.4995         estimate D2E/DX2                !
 ! D159  D(29,28,33,32)          3.0909         estimate D2E/DX2                !
 ! D160  D(29,28,33,34)       -176.3971         estimate D2E/DX2                !
 ! D161  D(28,29,30,31)          0.9644         estimate D2E/DX2                !
 ! D162  D(28,29,30,62)       -179.6044         estimate D2E/DX2                !
 ! D163  D(61,29,30,31)       -177.9371         estimate D2E/DX2                !
 ! D164  D(61,29,30,62)          1.4941         estimate D2E/DX2                !
 ! D165  D(29,30,31,32)          0.8267         estimate D2E/DX2                !
 ! D166  D(29,30,31,63)        179.8764         estimate D2E/DX2                !
 ! D167  D(62,30,31,32)       -178.6031         estimate D2E/DX2                !
 ! D168  D(62,30,31,63)          0.4467         estimate D2E/DX2                !
 ! D169  D(30,31,32,33)         -0.6787         estimate D2E/DX2                !
 ! D170  D(30,31,32,64)        178.7064         estimate D2E/DX2                !
 ! D171  D(63,31,32,33)       -179.7312         estimate D2E/DX2                !
 ! D172  D(63,31,32,64)         -0.346          estimate D2E/DX2                !
 ! D173  D(31,32,33,28)         -1.2682         estimate D2E/DX2                !
 ! D174  D(31,32,33,34)        178.0652         estimate D2E/DX2                !
 ! D175  D(64,32,33,28)        179.3485         estimate D2E/DX2                !
 ! D176  D(64,32,33,34)         -1.3181         estimate D2E/DX2                !
 ! D177  D(28,33,34,35)        179.9115         estimate D2E/DX2                !
 ! D178  D(28,33,34,39)         -0.6217         estimate D2E/DX2                !
 ! D179  D(32,33,34,35)          0.5229         estimate D2E/DX2                !
 ! D180  D(32,33,34,39)        179.9897         estimate D2E/DX2                !
 ! D181  D(33,34,35,36)        178.2014         estimate D2E/DX2                !
 ! D182  D(33,34,35,65)         -1.2243         estimate D2E/DX2                !
 ! D183  D(39,34,35,36)         -1.2173         estimate D2E/DX2                !
 ! D184  D(39,34,35,65)        179.357          estimate D2E/DX2                !
 ! D185  D(33,34,39,27)          0.4976         estimate D2E/DX2                !
 ! D186  D(33,34,39,38)       -176.4704         estimate D2E/DX2                !
 ! D187  D(35,34,39,27)       -179.9489         estimate D2E/DX2                !
 ! D188  D(35,34,39,38)          3.083          estimate D2E/DX2                !
 ! D189  D(34,35,36,37)         -0.7082         estimate D2E/DX2                !
 ! D190  D(34,35,36,66)       -179.7752         estimate D2E/DX2                !
 ! D191  D(65,35,36,37)        178.7194         estimate D2E/DX2                !
 ! D192  D(65,35,36,66)         -0.3476         estimate D2E/DX2                !
 ! D193  D(35,36,37,38)          0.7896         estimate D2E/DX2                !
 ! D194  D(35,36,37,67)       -178.6652         estimate D2E/DX2                !
 ! D195  D(66,36,37,38)        179.8543         estimate D2E/DX2                !
 ! D196  D(66,36,37,67)          0.3995         estimate D2E/DX2                !
 ! D197  D(36,37,38,39)          1.0445         estimate D2E/DX2                !
 ! D198  D(36,37,38,68)       -177.9472         estimate D2E/DX2                !
 ! D199  D(67,37,38,39)       -179.4989         estimate D2E/DX2                !
 ! D200  D(67,37,38,68)          1.5094         estimate D2E/DX2                !
 ! D201  D(37,38,39,27)       -179.1292         estimate D2E/DX2                !
 ! D202  D(37,38,39,34)         -3.0029         estimate D2E/DX2                !
 ! D203  D(68,38,39,27)         -0.1623         estimate D2E/DX2                !
 ! D204  D(68,38,39,34)        175.9641         estimate D2E/DX2                !
 ! D205  D(26,40,41,16)       -179.2154         estimate D2E/DX2                !
 ! D206  D(26,40,41,23)         -2.9409         estimate D2E/DX2                !
 ! D207  D(69,40,41,16)          2.3977         estimate D2E/DX2                !
 ! D208  D(69,40,41,23)        178.6722         estimate D2E/DX2                !
 ! D209  D(15,42,43,5)         178.2862         estimate D2E/DX2                !
 ! D210  D(15,42,43,12)          2.7353         estimate D2E/DX2                !
 ! D211  D(70,42,43,5)           2.2218         estimate D2E/DX2                !
 ! D212  D(70,42,43,12)       -173.3291         estimate D2E/DX2                !
 ! D213  D(4,44,45,1)            0.0728         estimate D2E/DX2                !
 ! D214  D(4,44,45,72)        -179.4799         estimate D2E/DX2                !
 ! D215  D(71,44,45,1)         177.5149         estimate D2E/DX2                !
 ! D216  D(71,44,45,72)         -2.0379         estimate D2E/DX2                !
 --------------------------------------------------------------------------------
 Trust Radius=3.00D-01 FncErr=1.00D-07 GrdErr=1.00D-06 EigMax=2.50D+02 EigMin=1.00D-04
 Number of steps in this run=    432 maximum allowed number of steps=    432.
 GradGradGradGradGradGradGradGradGradGradGradGradGradGradGradGradGradGrad

 Leave Link  103 at Fri Jun  5 17:00:45 2026, MaxMem=  2516582400 cpu:               0.0 elap:               0.1
 (Enter /apl/gaussian/16c02/g16/l202.exe)
 Stoichiometry    C42H27N3
 Framework group  C1[X(C42H27N3)]
 Deg. of freedom   210
 Full point group                 C1      NOp   1
 Largest Abelian subgroup         C1      NOp   1
 Largest concise Abelian subgroup C1      NOp   1
                         Standard orientation:                         
 ---------------------------------------------------------------------
 Center     Atomic      Atomic             Coordinates (Angstroms)
 Number     Number       Type             X           Y           Z
 ---------------------------------------------------------------------
      1          6           0       -6.743064    1.358927    2.539624
      2          6           0       -6.608647   -0.015181    2.733147
      3          6           0       -5.819992   -0.771802    1.864024
      4          6           0       -5.159567   -0.149412    0.797168
      5          7           0       -4.346973   -0.918938   -0.088674
      6          6           0       -4.691332   -2.160855   -0.627991
      7          6           0       -5.871255   -2.929392   -0.534877
      8          6           0       -5.937501   -4.151446   -1.210558
      9          6           0       -4.870872   -4.598281   -1.978265
     10          6           0       -3.717318   -3.820382   -2.100656
     11          6           0       -3.627623   -2.579831   -1.430608
     12          6           0       -2.623693   -1.569186   -1.386704
     13          6           0       -1.352000   -1.449697   -1.988639
     14          6           0       -0.551894   -0.334057   -1.724704
     15          6           0       -0.999214    0.660722   -0.857183
     16          7           0       -0.163565    1.781168   -0.565040
     17          6           0       -0.584991    3.112271   -0.524043
     18          6           0       -1.829313    3.710468   -0.815650
     19          6           0       -1.955524    5.097814   -0.701054
     20          6           0       -0.872652    5.881511   -0.326402
     21          6           0        0.368932    5.293032   -0.074361
     22          6           0        0.522531    3.893140   -0.186166
     23          6           0        1.639965    3.021455   -0.032998
     24          6           0        2.995468    3.242563    0.294682
     25          6           0        3.875312    2.161939    0.410947
     26          6           0        3.416909    0.859162    0.221051
     27          7           0        4.316896   -0.240462    0.368624
     28          6           0        5.612764   -0.297982   -0.151357
     29          6           0        6.337762    0.598396   -0.965454
     30          6           0        7.636916    0.259084   -1.354680
     31          6           0        8.203193   -0.947459   -0.966905
     32          6           0        7.472120   -1.851213   -0.192552
     33          6           0        6.156147   -1.532808    0.211149
     34          6           0        5.168742   -2.242671    0.954718
     35          6           0        5.152993   -3.517158    1.564387
     36          6           0        4.025946   -3.938338    2.273806
     37          6           0        2.924001   -3.103183    2.395617
     38          6           0        2.914657   -1.838430    1.800211
     39          6           0        4.037963   -1.427985    1.050576
     40          6           0        2.073434    0.617318   -0.107085
     41          6           0        1.199096    1.716598   -0.261527
     42          6           0       -2.263791    0.565812   -0.254074
     43          6           0       -3.081432   -0.547559   -0.552298
     44          6           0       -5.297204    1.231301    0.605759
     45          6           0       -6.089283    1.981364    1.477252
     46          1           0       -7.357561    1.945510    3.218016
     47          1           0       -7.111168   -0.497062    3.568187
     48          1           0       -5.698423   -1.834204    2.061350
     49          1           0       -6.731334   -2.586229    0.031958
     50          1           0       -6.840444   -4.753724   -1.139741
     51          1           0       -4.937201   -5.549867   -2.499492
     52          1           0       -2.894963   -4.167698   -2.719918
     53          1           0       -0.990110   -2.226552   -2.657151
     54          1           0        0.407095   -0.254316   -2.231696
     55          1           0       -2.679984    3.121631   -1.143722
     56          1           0       -2.911761    5.568324   -0.918152
     57          1           0       -0.984717    6.959570   -0.243535
     58          1           0        1.216563    5.915742    0.197705
     59          1           0        3.354727    4.252122    0.475748
     60          1           0        4.902614    2.361680    0.707242
     61          1           0        5.904959    1.532747   -1.309502
     62          1           0        8.205749    0.946486   -1.976677
     63          1           0        9.213651   -1.198887   -1.278670
     64          1           0        7.914210   -2.802609    0.089519
     65          1           0        6.019661   -4.167998    1.490931
     66          1           0        4.019785   -4.918150    2.744247
     67          1           0        2.059082   -3.430625    2.968187
     68          1           0        2.053658   -1.191314    1.938731
     69          1           0        1.717467   -0.395708   -0.265749
     70          1           0       -2.582090    1.301781    0.478722
     71          1           0       -4.831685    1.733957   -0.237940
     72          1           0       -6.202439    3.051601    1.323060
 ---------------------------------------------------------------------
 Rotational constants (GHZ):           0.1041785           0.0418465           0.0334301
 Leave Link  202 at Fri Jun  5 17:00:45 2026, MaxMem=  2516582400 cpu:               0.0 elap:               0.1
 (Enter /apl/gaussian/16c02/g16/l301.exe)
 Standard basis: 6-31G(d) (6D, 7F)
 Ernie: Thresh=  0.10000D-02 Tol=  0.10000D-05 Strict=F.
 There are   729 symmetry adapted cartesian basis functions of A   symmetry.
 There are   729 symmetry adapted basis functions of A   symmetry.
   729 basis functions,  1368 primitive gaussians,   729 cartesian basis functions
   150 alpha electrons      150 beta electrons
       nuclear repulsion energy      4750.7397364244 Hartrees.
 IExCor=  402 DFT=T Ex+Corr=B3LYP ExCW=0 ScaHFX=  0.200000
 ScaDFX=  0.800000  0.720000  1.000000  0.810000 ScalE2=  1.000000  1.000000
 IRadAn=      5 IRanWt=     -1 IRanGd=            0 ICorTp=0 IEmpDi=  4
 NAtoms=   72 NActive=   72 NUniq=   72 SFac= 1.00D+00 NAtFMM=   60 NAOKFM=T Big=T
 Integral buffers will be    131072 words long.
 Raffenetti 2 integral format.
 Two-electron integral symmetry is turned on.
 Leave Link  301 at Fri Jun  5 17:00:46 2026, MaxMem=  2516582400 cpu:               0.1 elap:               0.1
 (Enter /apl/gaussian/16c02/g16/l302.exe)
 NPDir=0 NMtPBC=     1 NCelOv=     1 NCel=       1 NClECP=     1 NCelD=      1
         NCelK=      1 NCelE2=     1 NClLst=     1 CellRange=     0.0.
 One-electron integrals computed using PRISM.
 One-electron integral symmetry used in STVInt
 NBasis=   729 RedAO= T EigKep=  2.54D-04  NBF=   729
 NBsUse=   729 1.00D-06 EigRej= -1.00D+00 NBFU=   729
 Precomputing XC quadrature grid using
 IXCGrd= 4 IRadAn=           5 IRanWt=          -1 IRanGd=           0 AccXCQ= 0.00D+00.
 Generated NRdTot=       0 NPtTot=           0 NUsed=           0 NTot=          32
 NSgBfM=   703   703   703   703   703 MxSgAt=    72 MxSgA2=    72.
 Leave Link  302 at Fri Jun  5 17:00:47 2026, MaxMem=  2516582400 cpu:               9.6 elap:               0.9
 (Enter /apl/gaussian/16c02/g16/l303.exe)
 DipDrv:  MaxL=1.
 Leave Link  303 at Fri Jun  5 17:00:47 2026, MaxMem=  2516582400 cpu:               0.1 elap:               0.1
 (Enter /apl/gaussian/16c02/g16/l401.exe)
 ExpMin= 1.61D-01 ExpMax= 4.17D+03 ExpMxC= 6.27D+02 IAcc=3 IRadAn=         5 AccDes= 0.00D+00
 Harris functional with IExCor=  402 and IRadAn=       5 diagonalized for initial guess.
 HarFok:  IExCor=  402 AccDes= 0.00D+00 IRadAn=         5 IDoV= 1 UseB2=F ITyADJ=14
 ICtDFT=  3500011 ScaDFX=  1.000000  1.000000  1.000000  1.000000
 FoFCou: FMM=F IPFlag=           0 FMFlag=      100000 FMFlg1=        2001
         NFxFlg=           0 DoJE=T BraDBF=F KetDBF=T FulRan=T
         wScrn=  0.000000 ICntrl=       500 IOpCl=  0 I1Cent=   200000004 NGrid=           0
         NMat0=    1 NMatS0=      1 NMatT0=    0 NMatD0=    1 NMtDS0=    0 NMtDT0=    0
 Petite list used in FoFCou.
 Harris En= -1781.00669786058    
 JPrj=0 DoOrth=F DoCkMO=F.
 Leave Link  401 at Fri Jun  5 17:00:50 2026, MaxMem=  2516582400 cpu:              43.1 elap:               3.0
 (Enter /apl/gaussian/16c02/g16/l502.exe)
 Integral symmetry usage will be decided dynamically.
 Closed shell SCF:
 Using DIIS extrapolation, IDIIS=  1040.
 NGot=  2516582400 LenX=  2515498607 LenY=  2514966437
 Requested convergence on RMS density matrix=1.00D-08 within 128 cycles.
 Requested convergence on MAX density matrix=1.00D-06.
 Requested convergence on             energy=1.00D-06.
 No special actions if energy rises.
 Fock matrices will be formed incrementally for  20 cycles.
 Integral accuracy reduced to 1.0D-05 until final iterations.

 Cycle   1  Pass 0  IDiag  1:
 FoFJK:  IHMeth= 1 ICntrl=       0 DoSepK=F KAlg= 0 I1Cent=           0 FoldK=F
 IRaf= 750000000 NMat=       1 IRICut=       1 DoRegI=T DoRafI=F ISym2E= 0 IDoP0=0 IntGTp=1.
 FoFCou: FMM=T IPFlag=           0 FMFlag=      100000 FMFlg1=        2001
         NFxFlg=           0 DoJE=F BraDBF=F KetDBF=F FulRan=T
         wScrn=  0.000000 ICntrl=         0 IOpCl=  0 I1Cent=           0 NGrid=           0
         NMat0=    1 NMatS0=      1 NMatT0=    0 NMatD0=    1 NMtDS0=    0 NMtDT0=    0
 Symmetry not used in FoFCou.
 FMM levels:  10  Number of levels for PrismC:   9
 E= -1780.13904863732    
 DIIS: error= 3.52D-02 at cycle   1 NSaved=   1.
 NSaved= 1 IEnMin= 1 EnMin= -1780.13904863732     IErMin= 1 ErrMin= 3.52D-02
 ErrMax= 3.52D-02  0.00D+00 EMaxC= 1.00D-01 BMatC= 8.47D-01 BMatP= 8.47D-01
 IDIUse=3 WtCom= 6.48D-01 WtEn= 3.52D-01
 Coeff-Com:  0.100D+01
 Coeff-En:   0.100D+01
 Coeff:      0.100D+01
 Gap=     0.232 Goal=   None    Shift=    0.000
 GapD=    0.232 DampG=1.000 DampE=0.500 DampFc=0.5000 IDamp=-1.
 Damping current iteration by 5.00D-01
 RMSDP=3.41D-03 MaxDP=1.22D-01              OVMax= 2.48D-01

 Cycle   2  Pass 0  IDiag  1:
 RMSU=  1.64D-03    CP:  9.65D-01
 E= -1780.50554525786     Delta-E=       -0.366496620540 Rises=F Damp=T
 DIIS: error= 7.26D-03 at cycle   2 NSaved=   2.
 NSaved= 2 IEnMin= 2 EnMin= -1780.50554525786     IErMin= 2 ErrMin= 7.26D-03
 ErrMax= 7.26D-03  0.00D+00 EMaxC= 1.00D-01 BMatC= 1.00D-01 BMatP= 8.47D-01
 IDIUse=3 WtCom= 9.27D-01 WtEn= 7.26D-02
 Coeff-Com:  0.962D-01 0.904D+00
 Coeff-En:   0.164D+00 0.836D+00
 Coeff:      0.101D+00 0.899D+00
 Gap=     0.196 Goal=   None    Shift=    0.000
 RMSDP=1.40D-03 MaxDP=1.04D-01 DE=-3.66D-01 OVMax= 2.64D-01

 Cycle   3  Pass 0  IDiag  1:
 RMSU=  1.34D-03    CP:  9.39D-01  8.42D-01
 E= -1780.87492422750     Delta-E=       -0.369378969648 Rises=F Damp=F
 DIIS: error= 9.88D-03 at cycle   3 NSaved=   3.
 NSaved= 3 IEnMin= 3 EnMin= -1780.87492422750     IErMin= 2 ErrMin= 7.26D-03
 ErrMax= 9.88D-03  0.00D+00 EMaxC= 1.00D-01 BMatC= 1.60D-01 BMatP= 1.00D-01
 IDIUse=3 WtCom= 9.14D-02 WtEn= 9.09D-01
 Coeff-Com: -0.284D-01 0.579D+00 0.450D+00
 Coeff-En:   0.000D+00 0.000D+00 0.100D+01
 Coeff:     -0.260D-02 0.529D-01 0.950D+00
 Gap=     0.207 Goal=   None    Shift=    0.000
 RMSDP=2.03D-03 MaxDP=1.19D-01 DE=-3.69D-01 OVMax= 2.44D-01

 Cycle   4  Pass 0  IDiag  1:
 RMSU=  1.07D-03    CP:  9.44D-01  1.37D+00 -1.20D-01
 E= -1780.25589230011     Delta-E=        0.619031927392 Rises=F Damp=F
 DIIS: error= 2.19D-02 at cycle   4 NSaved=   4.
 NSaved= 4 IEnMin= 3 EnMin= -1780.87492422750     IErMin= 2 ErrMin= 7.26D-03
 ErrMax= 2.19D-02  0.00D+00 EMaxC= 1.00D-01 BMatC= 7.22D-01 BMatP= 1.00D-01
 IDIUse=2 WtCom= 0.00D+00 WtEn= 1.00D+00
 Coeff-En:   0.000D+00 0.000D+00 0.758D+00 0.242D+00
 Coeff:      0.000D+00 0.000D+00 0.758D+00 0.242D+00
 Gap=     0.170 Goal=   None    Shift=    0.000
 RMSDP=1.04D-03 MaxDP=5.86D-02 DE= 6.19D-01 OVMax= 1.49D-01

 Cycle   5  Pass 0  IDiag  1:
 RMSU=  1.78D-04    CP:  9.43D-01  1.07D+00  4.39D-01  5.14D-01
 E= -1780.99996310952     Delta-E=       -0.744070809408 Rises=F Damp=F
 DIIS: error= 6.22D-03 at cycle   5 NSaved=   5.
 NSaved= 5 IEnMin= 5 EnMin= -1780.99996310952     IErMin= 5 ErrMin= 6.22D-03
 ErrMax= 6.22D-03  0.00D+00 EMaxC= 1.00D-01 BMatC= 4.84D-02 BMatP= 1.00D-01
 IDIUse=3 WtCom= 9.38D-01 WtEn= 6.22D-02
 Coeff-Com:  0.183D-02 0.633D-02 0.303D+00-0.504D-01 0.739D+00
 Coeff-En:   0.000D+00 0.000D+00 0.285D+00 0.000D+00 0.715D+00
 Coeff:      0.172D-02 0.594D-02 0.302D+00-0.473D-01 0.737D+00
 Gap=     0.153 Goal=   None    Shift=    0.000
 RMSDP=3.70D-04 MaxDP=2.69D-02 DE=-7.44D-01 OVMax= 5.25D-02

 Cycle   6  Pass 0  IDiag  1:
 RMSU=  7.42D-05    CP:  9.42D-01  9.88D-01  6.35D-01  3.27D-01  7.54D-01
 E= -1781.05193350419     Delta-E=       -0.051970394669 Rises=F Damp=F
 DIIS: error= 8.64D-04 at cycle   6 NSaved=   6.
 NSaved= 6 IEnMin= 6 EnMin= -1781.05193350419     IErMin= 6 ErrMin= 8.64D-04
 ErrMax= 8.64D-04  0.00D+00 EMaxC= 1.00D-01 BMatC= 6.71D-04 BMatP= 4.84D-02
 IDIUse=3 WtCom= 9.91D-01 WtEn= 8.64D-03
 Coeff-Com: -0.361D-02 0.977D-02 0.118D+00-0.676D-01 0.463D+00 0.481D+00
 Coeff-En:   0.000D+00 0.000D+00 0.000D+00 0.000D+00 0.000D+00 0.100D+01
 Coeff:     -0.358D-02 0.968D-02 0.117D+00-0.671D-01 0.459D+00 0.485D+00
 Gap=     0.151 Goal=   None    Shift=    0.000
 RMSDP=4.34D-05 MaxDP=3.63D-03 DE=-5.20D-02 OVMax= 7.88D-03

 Cycle   7  Pass 0  IDiag  1:
 RMSU=  1.61D-05    CP:  9.42D-01  9.88D-01  6.37D-01  3.28D-01  8.44D-01
                    CP:  5.04D-01
 E= -1781.05259482358     Delta-E=       -0.000661319387 Rises=F Damp=F
 DIIS: error= 1.44D-04 at cycle   7 NSaved=   7.
 NSaved= 7 IEnMin= 7 EnMin= -1781.05259482358     IErMin= 7 ErrMin= 1.44D-04
 ErrMax= 1.44D-04  0.00D+00 EMaxC= 1.00D-01 BMatC= 2.37D-05 BMatP= 6.71D-04
 IDIUse=3 WtCom= 9.99D-01 WtEn= 1.44D-03
 Coeff-Com: -0.174D-02 0.431D-02 0.581D-01-0.348D-01 0.232D+00 0.275D+00
 Coeff-Com:  0.467D+00
 Coeff-En:   0.000D+00 0.000D+00 0.000D+00 0.000D+00 0.000D+00 0.000D+00
 Coeff-En:   0.100D+01
 Coeff:     -0.174D-02 0.430D-02 0.580D-01-0.348D-01 0.231D+00 0.275D+00
 Coeff:      0.468D+00
 Gap=     0.151 Goal=   None    Shift=    0.000
 RMSDP=1.01D-05 MaxDP=6.54D-04 DE=-6.61D-04 OVMax= 1.55D-03

 Cycle   8  Pass 0  IDiag  1:
 RMSU=  6.43D-06    CP:  9.42D-01  9.88D-01  6.38D-01  3.28D-01  8.40D-01
                    CP:  5.48D-01  5.61D-01
 E= -1781.05261607970     Delta-E=       -0.000021256125 Rises=F Damp=F
 DIIS: error= 5.36D-05 at cycle   8 NSaved=   8.
 NSaved= 8 IEnMin= 8 EnMin= -1781.05261607970     IErMin= 8 ErrMin= 5.36D-05
 ErrMax= 5.36D-05  0.00D+00 EMaxC= 1.00D-01 BMatC= 4.24D-06 BMatP= 2.37D-05
 IDIUse=1 WtCom= 1.00D+00 WtEn= 0.00D+00
 Coeff-Com: -0.453D-04-0.223D-03 0.704D-02-0.431D-02 0.263D-01 0.551D-01
 Coeff-Com:  0.309D+00 0.607D+00
 Coeff:     -0.453D-04-0.223D-03 0.704D-02-0.431D-02 0.263D-01 0.551D-01
 Coeff:      0.309D+00 0.607D+00
 Gap=     0.151 Goal=   None    Shift=    0.000
 RMSDP=4.21D-06 MaxDP=2.90D-04 DE=-2.13D-05 OVMax= 6.28D-04

 Initial convergence to 1.0D-05 achieved.  Increase integral accuracy.
 Cycle   9  Pass 1  IDiag  1:
 E= -1781.05261461603     Delta-E=        0.000001463677 Rises=F Damp=F
 DIIS: error= 2.05D-04 at cycle   1 NSaved=   1.
 NSaved= 1 IEnMin= 1 EnMin= -1781.05261461603     IErMin= 1 ErrMin= 2.05D-04
 ErrMax= 2.05D-04  0.00D+00 EMaxC= 1.00D-01 BMatC= 2.12D-05 BMatP= 2.12D-05
 IDIUse=3 WtCom= 9.98D-01 WtEn= 2.05D-03
 Coeff-Com:  0.100D+01
 Coeff-En:   0.100D+01
 Coeff:      0.100D+01
 Gap=     0.151 Goal=   None    Shift=    0.000
 RMSDP=4.21D-06 MaxDP=2.90D-04 DE= 1.46D-06 OVMax= 6.80D-04

 Cycle  10  Pass 1  IDiag  1:
 RMSU=  1.37D-04    CP:  1.00D+00
 E= -1781.05263195076     Delta-E=       -0.000017334735 Rises=F Damp=F
 DIIS: error= 4.75D-05 at cycle   2 NSaved=   2.
 NSaved= 2 IEnMin= 2 EnMin= -1781.05263195076     IErMin= 2 ErrMin= 4.75D-05
 ErrMax= 4.75D-05  0.00D+00 EMaxC= 1.00D-01 BMatC= 2.41D-06 BMatP= 2.12D-05
 IDIUse=1 WtCom= 1.00D+00 WtEn= 0.00D+00
 Coeff-Com:  0.129D+00 0.871D+00
 Coeff:      0.129D+00 0.871D+00
 Gap=     0.151 Goal=   None    Shift=    0.000
 RMSDP=7.80D-06 MaxDP=4.79D-04 DE=-1.73D-05 OVMax= 1.28D-03

 Cycle  11  Pass 1  IDiag  1:
 RMSU=  7.73D-06    CP:  1.00D+00  1.01D+00
 E= -1781.05262428210     Delta-E=        0.000007668664 Rises=F Damp=F
 DIIS: error= 9.37D-05 at cycle   3 NSaved=   3.
 NSaved= 3 IEnMin= 2 EnMin= -1781.05263195076     IErMin= 2 ErrMin= 4.75D-05
 ErrMax= 9.37D-05  0.00D+00 EMaxC= 1.00D-01 BMatC= 9.12D-06 BMatP= 2.41D-06
 IDIUse=1 WtCom= 1.00D+00 WtEn= 0.00D+00
 Coeff-Com: -0.325D-02 0.663D+00 0.340D+00
 Coeff:     -0.325D-02 0.663D+00 0.340D+00
 Gap=     0.151 Goal=   None    Shift=    0.000
 RMSDP=5.18D-06 MaxDP=3.32D-04 DE= 7.67D-06 OVMax= 8.69D-04

 Cycle  12  Pass 1  IDiag  1:
 RMSU=  7.88D-07    CP:  1.00D+00  1.01D+00  3.40D-01
 E= -1781.05263463172     Delta-E=       -0.000010349620 Rises=F Damp=F
 DIIS: error= 4.50D-06 at cycle   4 NSaved=   4.
 NSaved= 4 IEnMin= 4 EnMin= -1781.05263463172     IErMin= 4 ErrMin= 4.50D-06
 ErrMax= 4.50D-06  0.00D+00 EMaxC= 1.00D-01 BMatC= 7.19D-08 BMatP= 2.41D-06
 IDIUse=1 WtCom= 1.00D+00 WtEn= 0.00D+00
 Coeff-Com: -0.402D-02 0.397D+00 0.209D+00 0.398D+00
 Coeff:     -0.402D-02 0.397D+00 0.209D+00 0.398D+00
 Gap=     0.151 Goal=   None    Shift=    0.000
 RMSDP=4.43D-07 MaxDP=1.94D-05 DE=-1.03D-05 OVMax= 4.44D-05

 Cycle  13  Pass 1  IDiag  1:
 RMSU=  2.32D-07    CP:  1.00D+00  1.01D+00  3.47D-01  5.27D-01
 E= -1781.05263470384     Delta-E=       -0.000000072121 Rises=F Damp=F
 DIIS: error= 1.05D-06 at cycle   5 NSaved=   5.
 NSaved= 5 IEnMin= 5 EnMin= -1781.05263470384     IErMin= 5 ErrMin= 1.05D-06
 ErrMax= 1.05D-06  0.00D+00 EMaxC= 1.00D-01 BMatC= 1.38D-09 BMatP= 7.19D-08
 IDIUse=1 WtCom= 1.00D+00 WtEn= 0.00D+00
 Coeff-Com: -0.237D-02 0.227D+00 0.120D+00 0.241D+00 0.414D+00
 Coeff:     -0.237D-02 0.227D+00 0.120D+00 0.241D+00 0.414D+00
 Gap=     0.151 Goal=   None    Shift=    0.000
 RMSDP=7.71D-08 MaxDP=3.12D-06 DE=-7.21D-08 OVMax= 1.12D-05

 Cycle  14  Pass 1  IDiag  1:
 RMSU=  6.81D-08    CP:  1.00D+00  1.01D+00  3.47D-01  5.36D-01  8.48D-01
 E= -1781.05263470520     Delta-E=       -0.000000001363 Rises=F Damp=F
 DIIS: error= 3.40D-07 at cycle   6 NSaved=   6.
 NSaved= 6 IEnMin= 6 EnMin= -1781.05263470520     IErMin= 6 ErrMin= 3.40D-07
 ErrMax= 3.40D-07  0.00D+00 EMaxC= 1.00D-01 BMatC= 8.97D-11 BMatP= 1.38D-09
 IDIUse=1 WtCom= 1.00D+00 WtEn= 0.00D+00
 Coeff-Com: -0.777D-03 0.730D-01 0.386D-01 0.798D-01 0.226D+00 0.583D+00
 Coeff:     -0.777D-03 0.730D-01 0.386D-01 0.798D-01 0.226D+00 0.583D+00
 Gap=     0.151 Goal=   None    Shift=    0.000
 RMSDP=2.35D-08 MaxDP=1.41D-06 DE=-1.36D-09 OVMax= 3.67D-06

 Cycle  15  Pass 1  IDiag  1:
 RMSU=  1.95D-08    CP:  1.00D+00  1.01D+00  3.47D-01  5.36D-01  8.76D-01
                    CP:  8.36D-01
 E= -1781.05263470526     Delta-E=       -0.000000000060 Rises=F Damp=F
 DIIS: error= 1.48D-07 at cycle   7 NSaved=   7.
 NSaved= 7 IEnMin= 7 EnMin= -1781.05263470526     IErMin= 7 ErrMin= 1.48D-07
 ErrMax= 1.48D-07  0.00D+00 EMaxC= 1.00D-01 BMatC= 2.80D-11 BMatP= 8.97D-11
 IDIUse=1 WtCom= 1.00D+00 WtEn= 0.00D+00
 Coeff-Com: -0.583D-04 0.461D-02 0.245D-02 0.607D-02 0.713D-01 0.397D+00
 Coeff-Com:  0.518D+00
 Coeff:     -0.583D-04 0.461D-02 0.245D-02 0.607D-02 0.713D-01 0.397D+00
 Coeff:      0.518D+00
 Gap=     0.151 Goal=   None    Shift=    0.000
 RMSDP=9.81D-09 MaxDP=6.44D-07 DE=-6.00D-11 OVMax= 1.66D-06

 SCF Done:  E(RB3LYP) =  -1781.05263471     A.U. after   15 cycles
            NFock= 15  Conv=0.98D-08     -V/T= 2.0097
 KE= 1.763994359392D+03 PE=-1.362679533450D+04 EE= 5.331008603973D+03
 Leave Link  502 at Fri Jun  5 17:02:00 2026, MaxMem=  2516582400 cpu:             992.8 elap:              69.5
 (Enter /apl/gaussian/16c02/g16/l601.exe)
 Copying SCF densities to generalized density rwf, IOpCl= 0 IROHF=0.

 **********************************************************************

            Population analysis using the SCF Density.

 **********************************************************************

 Orbital symmetries:
       Occupied  (A) (A) (A) (A) (A) (A) (A) (A) (A) (A) (A) (A)
                 (A) (A) (A) (A) (A) (A) (A) (A) (A) (A) (A) (A)
                 (A) (A) (A) (A) (A) (A) (A) (A) (A) (A) (A) (A)
                 (A) (A) (A) (A) (A) (A) (A) (A) (A) (A) (A) (A)
                 (A) (A) (A) (A) (A) (A) (A) (A) (A) (A) (A) (A)
                 (A) (A) (A) (A) (A) (A) (A) (A) (A) (A) (A) (A)
                 (A) (A) (A) (A) (A) (A) (A) (A) (A) (A) (A) (A)
                 (A) (A) (A) (A) (A) (A) (A) (A) (A) (A) (A) (A)
                 (A) (A) (A) (A) (A) (A) (A) (A) (A) (A) (A) (A)
                 (A) (A) (A) (A) (A) (A) (A) (A) (A) (A) (A) (A)
                 (A) (A) (A) (A) (A) (A) (A) (A) (A) (A) (A) (A)
                 (A) (A) (A) (A) (A) (A) (A) (A) (A) (A) (A) (A)
                 (A) (A) (A) (A) (A) (A)
       Virtual   (A) (A) (A) (A) (A) (A) (A) (A) (A) (A) (A) (A)
                 (A) (A) (A) (A) (A) (A) (A) (A) (A) (A) (A) (A)
                 (A) (A) (A) (A) (A) (A) (A) (A) (A) (A) (A) (A)
                 (A) (A) (A) (A) (A) (A) (A) (A) (A) (A) (A) (A)
                 (A) (A) (A) (A) (A) (A) (A) (A) (A) (A) (A) (A)
                 (A) (A) (A) (A) (A) (A) (A) (A) (A) (A) (A) (A)
                 (A) (A) (A) (A) (A) (A) (A) (A) (A) (A) (A) (A)
                 (A) (A) (A) (A) (A) (A) (A) (A) (A) (A) (A) (A)
                 (A) (A) (A) (A) (A) (A) (A) (A) (A) (A) (A) (A)
                 (A) (A) (A) (A) (A) (A) (A) (A) (A) (A) (A) (A)
                 (A) (A) (A) (A) (A) (A) (A) (A) (A) (A) (A) (A)
                 (A) (A) (A) (A) (A) (A) (A) (A) (A) (A) (A) (A)
                 (A) (A) (A) (A) (A) (A) (A) (A) (A) (A) (A) (A)
                 (A) (A) (A) (A) (A) (A) (A) (A) (A) (A) (A) (A)
                 (A) (A) (A) (A) (A) (A) (A) (A) (A) (A) (A) (A)
                 (A) (A) (A) (A) (A) (A) (A) (A) (A) (A) (A) (A)
                 (A) (A) (A) (A) (A) (A) (A) (A) (A) (A) (A) (A)
                 (A) (A) (A) (A) (A) (A) (A) (A) (A) (A) (A) (A)
                 (A) (A) (A) (A) (A) (A) (A) (A) (A) (A) (A) (A)
                 (A) (A) (A) (A) (A) (A) (A) (A) (A) (A) (A) (A)
                 (A) (A) (A) (A) (A) (A) (A) (A) (A) (A) (A) (A)
                 (A) (A) (A) (A) (A) (A) (A) (A) (A) (A) (A) (A)
                 (A) (A) (A) (A) (A) (A) (A) (A) (A) (A) (A) (A)
                 (A) (A) (A) (A) (A) (A) (A) (A) (A) (A) (A) (A)
                 (A) (A) (A) (A) (A) (A) (A) (A) (A) (A) (A) (A)
                 (A) (A) (A) (A) (A) (A) (A) (A) (A) (A) (A) (A)
                 (A) (A) (A) (A) (A) (A) (A) (A) (A) (A) (A) (A)
                 (A) (A) (A) (A) (A) (A) (A) (A) (A) (A) (A) (A)
                 (A) (A) (A) (A) (A) (A) (A) (A) (A) (A) (A) (A)
                 (A) (A) (A) (A) (A) (A) (A) (A) (A) (A) (A) (A)
                 (A) (A) (A) (A) (A) (A) (A) (A) (A) (A) (A) (A)
                 (A) (A) (A) (A) (A) (A) (A) (A) (A) (A) (A) (A)
                 (A) (A) (A) (A) (A) (A) (A) (A) (A) (A) (A) (A)
                 (A) (A) (A) (A) (A) (A) (A) (A) (A) (A) (A) (A)
                 (A) (A) (A) (A) (A) (A) (A) (A) (A) (A) (A) (A)
                 (A) (A) (A) (A) (A) (A) (A) (A) (A) (A) (A) (A)
                 (A) (A) (A) (A) (A) (A) (A) (A) (A) (A) (A) (A)
                 (A) (A) (A) (A) (A) (A) (A) (A) (A) (A) (A) (A)
                 (A) (A) (A) (A) (A) (A) (A) (A) (A) (A) (A) (A)
                 (A) (A) (A) (A) (A) (A) (A) (A) (A) (A) (A) (A)
                 (A) (A) (A) (A) (A) (A) (A) (A) (A) (A) (A) (A)
                 (A) (A) (A) (A) (A) (A) (A) (A) (A) (A) (A) (A)
                 (A) (A) (A) (A) (A) (A) (A) (A) (A) (A) (A) (A)
                 (A) (A) (A) (A) (A) (A) (A) (A) (A) (A) (A) (A)
                 (A) (A) (A) (A) (A) (A) (A) (A) (A) (A) (A) (A)
                 (A) (A) (A) (A) (A) (A) (A) (A) (A) (A) (A) (A)
                 (A) (A) (A) (A) (A) (A) (A) (A) (A) (A) (A) (A)
                 (A) (A) (A) (A) (A) (A) (A) (A) (A) (A) (A) (A)
                 (A) (A) (A)
 The electronic state is 1-A.
 Alpha  occ. eigenvalues --  -14.39266 -14.38870 -14.38086 -10.24628 -10.24133
 Alpha  occ. eigenvalues --  -10.23657 -10.23582 -10.23145 -10.23043 -10.22728
 Alpha  occ. eigenvalues --  -10.22040 -10.22013 -10.20435 -10.20402 -10.20372
 Alpha  occ. eigenvalues --  -10.20346 -10.20177 -10.20149 -10.19943 -10.19775
 Alpha  occ. eigenvalues --  -10.19663 -10.19561 -10.19421 -10.19357 -10.19356
 Alpha  occ. eigenvalues --  -10.19327 -10.19218 -10.19191 -10.19115 -10.19023
 Alpha  occ. eigenvalues --  -10.18927 -10.18922 -10.18825 -10.18652 -10.18601
 Alpha  occ. eigenvalues --  -10.18592 -10.18547 -10.18526 -10.18385 -10.18361
 Alpha  occ. eigenvalues --  -10.18313 -10.18131 -10.18085 -10.17751 -10.17723
 Alpha  occ. eigenvalues --   -1.00073  -0.99617  -0.98809  -0.87793  -0.86846
 Alpha  occ. eigenvalues --   -0.85899  -0.84599  -0.84130  -0.83898  -0.83337
 Alpha  occ. eigenvalues --   -0.80251  -0.78641  -0.76979  -0.76432  -0.75932
 Alpha  occ. eigenvalues --   -0.75345  -0.75114  -0.74262  -0.73890  -0.73328
 Alpha  occ. eigenvalues --   -0.72180  -0.71333  -0.71108  -0.70468  -0.66172
 Alpha  occ. eigenvalues --   -0.65025  -0.63725  -0.62919  -0.62086  -0.61757
 Alpha  occ. eigenvalues --   -0.60713  -0.60265  -0.59675  -0.58734  -0.58419
 Alpha  occ. eigenvalues --   -0.57786  -0.56928  -0.56738  -0.54533  -0.53732
 Alpha  occ. eigenvalues --   -0.53170  -0.52119  -0.51266  -0.51008  -0.50241
 Alpha  occ. eigenvalues --   -0.49622  -0.48900  -0.48219  -0.47326  -0.46834
 Alpha  occ. eigenvalues --   -0.46355  -0.45994  -0.45642  -0.45265  -0.45055
 Alpha  occ. eigenvalues --   -0.44345  -0.44260  -0.44142  -0.43806  -0.43557
 Alpha  occ. eigenvalues --   -0.43376  -0.43275  -0.42862  -0.42675  -0.42217
 Alpha  occ. eigenvalues --   -0.42111  -0.41704  -0.41629  -0.41212  -0.41017
[...]
 08713,0.00001428,-0.00008346,-0.00004433,0.00009042,-0.00005521,-0.000
 07134,-0.00017159,0.00010431,0.00005821,0.00000411,-0.00003323,-0.0000
 3789,-0.00000761,0.00000699,0.00001157,-0.00003845,0.00002097,0.000020
 27,0.00002194,-0.00002227,0.00002161,-0.00002059,0.00001723,-0.0000232
 8,-0.00000776,-0.00000935,0.00000327,0.00000506,0.00000520,-0.00000304
 ,0.00000050,-0.00000006,0.00000235,-0.00000156,0.00000234,-0.00000015,
 0.00000095,0.00000023,0.00000354,-0.00000821,0.00000175,0.00000523,-0.
 00000012,0.00000404,-0.00000004,-0.00000262,0.00000150,0.00000279,-0.0
 0000143,0.00000280,-0.00000040,0.00000293,0.00000063,-0.00001012,0.000
 00117,-0.00000719,0.00001200,0.00001301,-0.00000154,0.00000923,0.00005
 970,-0.00000380,-0.00010525,-0.00008406,0.00008093,-0.06183111,0.01279
 995,-0.33227786,-0.00546042,-0.00028251,-0.01470610,-0.00070176,0.0002
 6256,0.00006971,-0.00010955,-0.00004072,0.00025363,0.00000527,-0.00001
 997,-0.00002375,-0.00002965,-0.00000894,0.00001189,0.00003201,-0.00002
 528,-0.00002549,0.00004658,0.00002074,0.00000559,0.00000969,0.00000532
 ,-0.00000364,0.00004022,0.00001481,-0.00001223,-0.00001370,-0.00001238
 ,0.00000079,0.00004788,-0.00016407,-0.00011244,-0.00008281,0.00023147,
 -0.00027152,0.00026918,-0.00007766,-0.00024825,-0.00000873,0.00000844,
 0.00000854,0.00001473,0.00000472,-0.00002670,0.00001159,0.00000917,0.0
 0000995,-0.00000053,0.00000624,0.00000345,0.00000254,-0.00000349,0.000
 00064,-0.00000046,-0.00000172,-0.00000379,0.00000093,0.00000086,-0.000
 00023,0.00000133,0.,-0.00000006,0.00000102,-0.00000084,-0.00000017,0.0
 0000157,-0.00000075,0.00000018,0.00000096,-0.00000159,-0.00000029,-0.0
 0000110,0.00000179,-0.00000035,-0.00000280,-0.00000076,0.00000277,0.00
 000964,-0.00003009,-0.00001591,0.06774284,-0.01513242,0.35183990,0.004
 56408,0.00094118,-0.00506835,-0.00051390,0.00014694,-0.00015267,0.0035
 6665,0.00180754,-0.00329532,0.00449135,0.01024936,0.00373217,-0.003504
 64,-0.00039491,0.00205300,0.00028012,0.00001754,0.00021726,0.00005073,
 0.00004684,0.00005940,-0.00005338,-0.00004190,0.00003347,-0.00002947,-
 0.00002170,-0.00001119,0.00002011,0.00001692,-0.00002872,-0.00001068,-
 0.00002913,0.00012973,-0.00010482,-0.00025189,-0.00033209,0.00022314,0
 .00015852,-0.00001980,-0.00001172,-0.00006359,0.00026772,-0.00037834,-
 0.00029024,-0.00007881,0.00012420,0.00004409,-0.00004728,0.00003057,0.
 00000605,-0.00001238,-0.00012271,0.00006376,0.00018870,0.00008945,-0.0
 0007192,0.00003668,0.00001888,0.00000763,-0.00003185,-0.00000049,0.000
 02464,-0.00000912,0.00000561,-0.00001873,-0.00000467,0.00002368,0.0000
 4102,-0.00004094,-0.00001572,-0.00000317,0.00000588,0.00002124,-0.0000
 0974,-0.00000229,-0.00005472,0.00003785,-0.00001442,0.00004592,-0.0000
 4079,0.00002085,-0.00004625,-0.00001732,-0.00001704,0.00000872,0.00001
 027,0.00000542,-0.00000727,-0.00000107,-0.00000428,0.00000386,-0.00000
 375,0.00000193,-0.00000039,0.00000194,-0.00000118,0.00000605,-0.000013
 62,0.00000284,0.00001080,-0.00000383,0.00000649,-0.00000154,-0.0000006
 2,-0.00000041,0.00000450,-0.00000311,0.00000196,0.00000217,0.00001080,
 0.00000041,-0.00000880,-0.00000949,-0.00000921,0.00001418,0.00004460,0
 .00000044,0.00004060,-0.00001538,0.00000545,-0.00016225,0.00001923,0.0
 0002068,-0.00004765,-0.00014771,0.00000760,0.00021100,0.00084776,-0.00
 042674,-0.04142207,-0.01885551,-0.01770078,0.00167748,-0.01336282,-0.0
 0461970,0.00012528,-0.00065225,-0.00030495,-0.00082072,-0.00012840,0.0
 0048357,0.00058136,0.00056906,-0.00002387,-0.00004315,-0.00002911,-0.0
 0001452,-0.00000675,-0.00000771,0.00000834,-0.00000808,-0.00000604,0.0
 0000378,0.00000344,-0.00000432,0.00000409,-0.00001345,0.00001485,0.000
 01281,0.00000522,0.00000966,0.00003237,0.00002962,-0.00016984,-0.00018
 004,-0.00000857,0.00001759,0.00000347,0.00000837,0.00001114,-0.0000131
 3,0.00000543,0.00000504,-0.00000461,0.00000251,0.00000336,-0.00000258,
 0.00000514,-0.00000058,-0.00000248,-0.00000308,-0.00000482,-0.00000262
 ,0.00000075,0.00000203,0.00000080,0.00000276,-0.00000023,0.00000152,0.
 00000135,-0.00000216,0.00000083,0.00000203,-0.00000138,0.00000144,0.00
 000078,-0.00000347,0.00000079,-0.00000203,-0.00000046,-0.00000072,0.00
 000192,0.00000402,0.00000549,-0.00001167,0.00000596,0.00000142,-0.0007
 1616,0.00027458,0.00008153,0.03478483,0.00041935,0.00180977,-0.0005053
 4,0.00031808,0.00046063,0.00062807,0.00253990,-0.00191475,0.00363919,-
 0.00359471,-0.01925501,-0.01299174,-0.00138472,0.00164779,-0.00071864,
 0.00010523,0.00000072,0.00039889,-0.00010273,0.00000971,-0.00002642,0.
 00000539,0.00002752,-0.00005816,0.00006444,0.00004772,0.00000698,0.000
 00604,-0.00002696,0.00009543,0.00000892,-0.00003128,-0.00010019,0.0001
 3578,-0.00002122,0.00021426,-0.00005622,-0.00002718,-0.00001440,-0.000
 01193,-0.00004835,-0.00007523,0.00019661,0.00028938,-0.00011512,-0.000
 09248,-0.00011899,0.00011048,-0.00006352,0.00015029,-0.00011430,0.0000
 0754,-0.00005842,0.00003504,-0.00000367,0.00002188,-0.00001071,-0.0000
 0023,-0.00001647,0.00001144,0.00000516,0.00001117,-0.00000023,-0.00002
 432,-0.00002308,0.00001937,-0.00001268,-0.00001730,0.00002115,0.000002
 52,-0.00000286,0.00000048,-0.00001276,-0.00000336,0.00000911,0.0000416
 4,-0.00001698,0.00000041,-0.00001865,0.00002300,-0.00000521,0.00001706
 ,0.00000956,0.00000563,-0.00000398,-0.00000518,-0.00000141,0.00000411,
 0.00000068,0.00000304,-0.00000161,0.00000312,-0.00000018,-0.00000112,-
 0.00000064,0.00000011,-0.00000199,0.00000366,-0.00000085,-0.00000632,0
 .00000333,-0.00000333,0.00000046,-0.00000178,0.00000051,0.00000004,0.0
 0000359,0.00000076,-0.00000497,-0.00000720,-0.00000203,0.00000329,0.00
 000635,0.00000532,-0.00000406,-0.00002806,-0.00000051,-0.00003124,0.00
 002156,-0.00000402,0.00012999,-0.00003174,0.00000753,-0.00039343,0.000
 08301,0.00018768,0.00027697,-0.00000928,0.00035454,-0.01738954,-0.2983
 2321,-0.10065243,0.00013295,0.00084672,0.00031193,0.00012446,-0.000043
 67,0.00007286,-0.00013967,-0.00004204,-0.00003795,-0.00019382,-0.00099
 121,-0.00063999,0.00006496,-0.00000613,-0.00002817,0.00000858,-0.00000
 013,-0.00000800,0.00000655,0.00000425,-0.00000224,-0.00000458,-0.00000
 515,0.00000445,-0.00001058,0.00000926,-0.00000404,-0.00000666,-0.00000
 832,-0.00002928,-0.00002392,0.00004255,-0.00002642,0.00000365,-0.00001
 788,0.00000806,0.00000078,-0.00000353,0.00000011,-0.00000011,-0.000003
 66,0.00000162,-0.00000382,-0.00000209,0.00000150,-0.00000232,-0.000001
 27,0.00000133,0.00000142,0.00000237,0.00000022,0.00000019,-0.00000042,
 -0.00000052,-0.00000061,0.00000020,-0.00000073,-0.00000056,0.00000071,
 -0.00000072,-0.00000015,0.00000051,-0.00000059,-0.00000080,0.00000192,
 -0.00000094,0.00000146,0.00000251,0.00000093,-0.00000106,-0.00000466,-
 0.00000426,0.00001111,-0.00000980,-0.00000221,0.00006512,-0.00003114,-
 0.00035253,0.01946705,0.31483562,-0.00516335,0.00042622,-0.00305851,-0
 .00026057,0.00061798,-0.00082870,-0.00334936,0.00242543,-0.00060301,0.
 00084417,0.01601839,0.00956143,0.00299737,-0.00016115,0.00102728,0.000
 10070,0.00012725,-0.00046709,-0.00003168,-0.00004223,0.00002865,0.0000
 1321,0.00001898,-0.00001571,-0.00001311,-0.00002231,0.00003334,0.00000
 276,0.00001508,-0.00005201,0.00002166,0.00007066,0.00009107,0.00012921
 ,0.00008109,0.00012309,-0.00014341,-0.00010482,0.00001835,0.00001734,0
 .00003375,-0.00014346,0.00000168,0.00008986,0.00006756,0.00000088,0.00
 009594,-0.00009197,0.00007811,-0.00014548,0.00012295,-0.00005200,-0.00
 005009,-0.00013529,-0.00000421,0.00001651,-0.00004506,-0.00002778,0.00
 002846,-0.00001652,-0.00000231,-0.00002585,0.00001289,0.00003588,0.000
 02615,-0.00001694,0.00000108,-0.00001120,0.00001134,0.00001884,0.00000
 219,-0.00000716,-0.00000382,0.00002230,-0.00001440,-0.00000492,-0.0000
 2043,0.00002055,-0.00001871,0.00002267,-0.00001411,0.00002025,0.000009
 08,0.00000633,-0.00000330,-0.00000511,-0.00000350,0.00000386,0.0000000
 4,0.00000140,-0.00000173,0.00000252,-0.00000158,-0.00000051,-0.0000007
 0,-0.00000031,-0.00000267,0.00000557,-0.00000101,-0.00000606,0.0000024
 4,-0.00000403,0.00000065,-0.00000012,-0.00000067,-0.00000116,0.0000022
 2,-0.00000152,0.00000044,-0.00000334,-0.00000103,0.00000570,0.00000439
 ,0.00000154,-0.00000847,-0.00002412,0.00000191,0.00000848,-0.00001694,
 0.00000348,-0.00001736,0.00002883,-0.00003556,-0.00060152,0.00003179,0
 .00019470,-0.00074407,-0.00044040,-0.00005103,-0.01826277,-0.10216492,
 -0.09792694,-0.00103907,-0.02729625,-0.00594563,-0.00018844,-0.0014167
 7,-0.00034894,0.00050046,-0.00005373,-0.00009197,-0.00006784,0.0008984
 1,0.00054980,-0.00000576,0.00000158,0.00001364,-0.00000538,-0.00000336
 ,0.00000427,0.00000015,-0.00000243,0.00000384,0.00000008,0.00000654,0.
 00000602,0.00000656,0.00001119,0.00000449,0.00001360,-0.00000914,-0.00
 001654,0.00000512,0.00003809,0.00019927,-0.00000582,0.00003598,0.00000
 211,0.00000005,0.00000057,0.00000492,-0.00000576,0.00000057,0.00000120
 ,0.00000352,-0.00000021,-0.00000033,-0.00000203,0.00000190,0.00000066,
 0.00000078,0.00000204,0.00000217,-0.00000042,-0.00000064,0.00000014,-0
 .00000114,0.00000010,-0.00000013,-0.00000097,0.00000084,-0.00000005,-0
 .00000103,0.00000062,-0.00000017,-0.00000062,0.00000146,0.00000026,0.0
 0000055,0.00000048,0.00000129,-0.00000184,-0.00000211,0.00000068,-0.00
 000546,0.00000775,-0.00000029,0.00018777,-0.00012440,-0.00015369,0.023
 03406,0.11040378,0.09783379,0.00409229,-0.00388329,0.00187224,0.005372
 81,-0.00017410,-0.00276852,-0.00034569,-0.00045145,-0.00001481,0.00549
 046,-0.00087568,-0.00426841,-0.00020339,0.00070077,-0.00083507,-0.0002
 6732,-0.00014027,0.00011030,-0.00002194,0.00000389,-0.00000812,-0.0000
 0414,0.00001696,0.00003343,-0.00001046,-0.00000703,-0.00001751,-0.0000
 0732,-0.00001016,-0.00000738,-0.00002058,-0.00002872,-0.00007998,-0.00
 002622,0.00002762,-0.00007816,0.00000236,-0.00001009,0.00001346,-0.000
 02948,-0.00002064,-0.00002552,0.00007277,0.00008889,-0.00002673,-0.000
 01796,-0.00007264,0.00007771,-0.00005248,0.00009598,-0.00009003,0.0000
 3480,0.00001353,0.00002455,0.00000460,0.00000640,0.00002290,0.00001362
 ,-0.00001466,0.00002637,-0.00000469,0.00001331,-0.00000434,-0.00003128
 ,-0.00001277,0.00002219,-0.00000443,0.00000277,-0.00000280,-0.00001391
 ,0.00000035,0.00000599,0.00000008,-0.00001699,0.00001341,0.00000727,0.
 00001601,-0.00001756,0.00001339,-0.00001548,0.00001161,-0.00001571,-0.
 00000622,-0.00000545,0.00000242,0.00000362,0.00000293,-0.00000277,-0.0
 0000002,-0.00000081,0.00000117,-0.00000159,0.00000132,-0.00000003,0.00
 000070,0.00000017,0.00000215,-0.00000476,0.00000089,0.00000419,-0.0000
 0123,0.00000287,-0.00000059,-0.00000041,0.00000067,0.00000100,-0.00000
 116,0.00000197,-0.00000099,0.00000256,0.00000171,-0.00000608,-0.000002
 32,-0.00000007,0.00000683,0.00001529,-0.00000161,-0.00001149,0.0000169
 2,-0.00000344,0.00003667,-0.00002464,0.00002166,-0.00012897,-0.0000561
 3,-0.00006714,0.00028358,0.00021804,0.00007888,-0.00203185,0.01179699,
 -0.00626458,-0.07307844,0.07706057,-0.05763777,-0.00286641,-0.00016215
 ,0.00187243,0.00025770,-0.00020515,0.00002747,-0.00083114,-0.00003961,
 0.00045721,0.00001814,-0.00001299,0.00002965,0.00000257,0.00000298,-0.
 00000333,0.00000420,-0.00000241,-0.00000402,-0.00000197,0.00000236,-0.
 00001141,-0.00000306,-0.00000432,-0.00000215,0.00000136,-0.00000866,-0
 .00000378,-0.00000663,0.00000785,-0.00003316,0.00000728,-0.00002876,-0
 .00001058,-0.00000166,-0.00000610,-0.00000337,0.00000157,-0.00000278,-
 0.00000167,-0.00000379,-0.00000145,-0.00000001,0.00000073,-0.00000171,
 -0.00000101,-0.00000049,-0.00000150,-0.00000184,0.00000040,0.00000059,
 -0.00000019,0.00000105,-0.00000004,0.00000008,0.00000076,-0.00000074,-
 0.00000011,0.00000104,-0.00000047,0.00000006,0.00000072,-0.00000121,-0
 .00000059,0.00000019,0.00000020,-0.00000211,0.00000209,0.00000101,-0.0
 0000250,0.00000537,-0.00000649,-0.00000010,0.00002900,0.00001446,-0.00
 002668,-0.00296543,-0.00057127,0.00200147,0.06724214,0.01077986,-0.017
 98690,0.01726130,-0.00084683,-0.00392218,-0.00394595,-0.00048530,0.000
 05113,-0.00086499,-0.00025907,0.00110806,-0.00181299,-0.00001653,0.000
 34859,-0.00010401,-0.00000780,0.00009001,-0.00014145,-0.00003924,-0.00
 001650,0.00001763,0.00000437,0.00001221,-0.00002117,0.00000846,0.00000
 439,0.00001478,-0.00000407,-0.00000792,0.00000061,0.00003336,-0.000000
 38,-0.00000222,0.00000853,0.00000550,0.00003102,-0.00000413,0.00000038
 ,-0.00000100,0.00001309,0.00000878,0.00000836,-0.00004600,-0.00003717,
 0.00001818,0.00002938,0.00002232,-0.00002784,0.00001805,-0.00001883,0.
 00001832,-0.00001565,-0.00000012,0.00000609,-0.00000403,-0.00000165,0.
 00000200,0.00000407,-0.00000127,-0.00000349,0.00000112,0.00000011,-0.0
 0000393,0.00001172,0.00000072,-0.00000526,0.00000477,0.00000810,-0.000
 00796,-0.00000074,-0.00000153,0.00000066,0.00000448,0.00000138,-0.0000
 0377,-0.00001281,0.00000397,0.00000175,0.00000966,-0.00000130,0.000002
 50,-0.00000933,-0.00000085,-0.00000382,0.00000177,0.00000100,0.0000004
 0,-0.00000013,-0.00000025,-0.00000050,0.00000073,0.00000069,-0.0000000
 2,-0.00000099,0.00000052,-0.00000109,0.00000129,-0.00000374,0.00000069
 ,0.00000020,0.00000058,0.00000017,-0.00000038,-0.00000138,-0.00000070,
 0.00000280,0.00000136,0.00000025,-0.00000144,0.00000050,-0.00000275,0.
 00000073,-0.00000053,-0.00000275,0.00000223,0.00000055,0.00000123,0.00
 001093,-0.00000674,0.00000196,-0.00003792,0.00000645,0.00000071,0.0000
 4221,0.00001663,-0.00000159,-0.00007601,-0.00011899,-0.00000919,-0.002
 51405,0.00739964,-0.00371899,0.07683496,-0.23554774,0.11210565,-0.0005
 1020,0.00102442,-0.00001013,0.00056706,-0.00104448,0.00091539,-0.00001
 923,0.00002526,0.00016326,0.00002034,0.00000104,-0.00000836,-0.0000023
 3,-0.00000396,0.00000115,0.00000128,-0.00000220,0.00000467,0.00000207,
 0.00000069,0.00000279,0.00000272,0.00000108,0.00000290,0.00000149,0.00
 000337,0.00000289,-0.00000061,-0.00000121,-0.00000637,-0.00000162,-0.0
 0000591,0.00000200,0.00000065,0.00000441,-0.00000127,0.00000333,0.0000
 0159,-0.00000050,0.00000146,0.00000186,-0.00000069,0.00000135,0.000000
 15,-0.00000008,-0.00000090,-0.00000067,-0.00000008,0.00000021,0.000000
 72,0.00000048,0.00000075,0.00000002,0.00000069,-0.00000009,-0.00000058
 ,0.00000030,0.00000055,-0.00000026,0.00000078,-0.00000076,-0.00000022,
 0.00000052,-0.00000063,0.00000132,0.00000190,-0.00000097,-0.00000121,0
 .00000258,-0.00000410,0.00000268,-0.00000018,-0.00002169,-0.00000386,0
 .00001658,-0.00024606,0.00077934,0.00051053,-0.08324038,0.24779896,0.0
 0478701,-0.01040597,0.01030031,-0.00267589,-0.00287595,0.00098425,-0.0
 0005142,-0.00076825,-0.00065165,-0.00411933,-0.00280572,-0.00176702,-0
 .00053880,0.00105078,-0.00122225,-0.00051506,-0.00015198,0.00034349,0.
 00009764,0.00006695,-0.00008578,0.00002655,-0.00003175,0.00006031,-0.0
 0002671,-0.00000334,-0.00004633,0.00000261,-0.00002885,-0.00001120,-0.
 00004335,-0.00003244,-0.00015746,-0.00005004,0.00002160,-0.00017313,0.
 00003928,0.00000798,-0.00000123,-0.00004005,-0.00002652,-0.00001154,0.
 00008852,0.00003665,-0.00002090,-0.00002436,-0.00006925,0.00005875,-0.
 00004220,0.00009193,-0.00007820,0.00001114,-0.00001464,0.00003468,-0.0
 0001379,0.00001188,0.00000223,0.00001183,-0.00001730,0.00001190,0.0000
 0160,0.00001045,-0.00001050,-0.00001842,-0.00001559,0.00001793,-0.0000
 0353,-0.00000064,-0.00000023,-0.00000723,-0.00000175,0.00000264,-0.000
 00192,-0.00001136,0.00000787,0.00001576,0.00000227,-0.00000822,-0.0000
 0206,-0.00000651,0.00000179,0.00000243,-0.00000215,0.00000243,-0.00000
 045,0.00000089,0.00000016,-0.00000094,0.00000025,-0.00000027,-0.000000
 03,-0.00000152,0.00000017,0.00000137,-0.00000031,0.00000094,-0.0000005
 0,0.00000183,-0.00000051,0.00000193,-0.00000162,0.00000124,0.00000010,
 0.00000154,0.00000051,-0.00000171,-0.00000193,-0.00000027,0.00000014,-
 0.00000068,0.00000116,-0.00000026,-0.00000160,0.00000186,0.00000059,0.
 00000875,-0.00000166,-0.00001323,0.00001244,-0.00000471,0.00004272,-0.
 00002028,0.00001758,-0.00007218,-0.00007622,0.00004173,0.00049346,0.00
 029870,0.00003133,-0.00936000,0.02414302,-0.01039823,-0.05805926,0.111
 83839,-0.12866365,0.00186941,0.00059669,-0.00012700,0.00017256,-0.0006
 2445,0.00044772,0.00046914,0.00016554,-0.00014218,-0.00002174,0.000015
 98,-0.00000745,0.00000658,0.00000922,-0.00000755,-0.00000307,0.0000074
 5,-0.00000632,-0.00000094,0.00000185,-0.00001745,-0.00000903,-0.000001
 07,-0.00000600,-0.00000781,0.00000042,-0.00000178,-0.00001808,0.000010
 79,-0.00003361,0.00000520,-0.00002402,0.00000406,0.00000008,0.00000041
 ,0.00000079,0.00000358,-0.00000047,0.00000081,-0.00000208,0.00000013,0
 .00000133,0.00000028,-0.00000072,0.00000070,0.00000040,-0.00000002,-0.
 00000016,-0.00000028,-0.00000049,-0.00000027,-0.00000043,-0.00000007,-
 0.00000039,0.00000027,0.00000023,-0.00000006,-0.00000032,0.00000004,-0
 .00000042,0.00000028,0.00000003,-0.00000030,0.00000009,-0.00000155,-0.
 00000104,0.00000090,0.00000171,-0.00000144,0.00000604,-0.00000489,0.00
 000093,-0.00001620,0.00004683,0.00000380,0.00200440,-0.00002313,0.0001
 3844,0.06559880,-0.12040860,0.13114454\\0.00000059,0.00000063,0.000001
 04,0.00000036,-0.00000074,0.00000159,-0.00000204,0.00000002,-0.0000053
 3,0.00000727,-0.00000158,0.00000946,-0.00000957,0.00000612,-0.00000615
 ,0.00000409,-0.00000366,0.00000526,-0.00000110,0.00000089,-0.00000189,
 0.00000122,0.00000058,0.00000288,-0.00000240,-0.00000234,-0.00000304,0
 .00000171,0.00000346,0.00000067,-0.00000267,-0.00000466,-0.00000487,-0
 .00000161,0.00000219,-0.00000219,0.00000141,-0.00000095,-0.00000053,-0
 .00000504,-0.00000215,0.00000276,0.00000810,0.00000903,0.00000137,-0.0
 0000433,-0.00001251,-0.00000500,0.00000111,0.00000716,0.00000033,-0.00
 000181,-0.00000186,0.,0.00000228,0.00000198,-0.00000144,-0.00000389,-0
 .00000179,0.00000213,0.00000325,0.00000034,0.00000073,-0.00000352,-0.0
 0000275,0.00000167,-0.00000072,0.00000184,0.00000395,0.00000046,-0.000
 00255,-0.00000038,-0.00000431,0.00000448,-0.00000027,0.00001283,-0.000
 00734,-0.00000280,-0.00001124,0.00000978,0.00000868,0.00000695,-0.0000
 0390,-0.00000220,-0.00000132,0.00000093,0.00000146,0.00000092,-0.00000
 246,0.00000121,-0.00000102,0.00000346,-0.00000132,-0.00000206,-0.00000
 321,0.00000135,0.00000209,0.00000665,-0.00000334,-0.00000666,-0.000001
 03,-0.00000148,0.00000352,0.00000146,-0.00000024,-0.00000375,0.0000013
 1,-0.00000128,0.00000280,-0.00000151,0.00000088,-0.00000147,0.00000079
 ,0.00000026,0.00000341,-0.00000675,-0.00000140,-0.00000542,0.00000081,
 -0.00000081,0.00000513,0.00000298,-0.00000035,-0.00000519,-0.00000281,
 0.00000050,0.00000640,0.00000021,0.00000124,-0.00000261,-0.00000116,-0
 .00000457,0.00000097,0.00000173,0.00000099,-0.00000021,0.00000005,-0.0
 0000063,0.00000029,0.00000030,-0.00000028,0.,-0.00000031,0.00000128,0.
 00000044,-0.00000031,-0.00000032,0.00000003,-0.00000041,-0.00000012,-0
 .00000039,-0.00000001,0.00000014,0.00000006,-0.00000091,-0.00000004,0.
 00000020,0.00000072,-0.00000012,0.00000215,-0.00000013,-0.00000119,0.0
 0000034,0.00000018,0.00000003,-0.00000004,0.00000007,-0.00000005,0.000
 00024,0.00000074,0.00000060,-0.00000053,0.00000017,-0.00000014,0.00000
 083,-0.00000002,0.00000067,0.00000085,-0.00000117,-0.00000005,0.000000
 27,-0.00000017,-0.00000025,0.00000025,-0.00000006,0.,-0.00000008,0.000
 00006,0.00000056,0.00000035,0.00000002,-0.00000054,-0.00000048,-0.0000
 0009,0.00000028,0.00000014,-0.00000020,-0.00000089,-0.00000018,-0.0000
 0008,-0.00000004,0.00000002,-0.00000026,-0.00000008,0.00000070,-0.0000
 0044,0.00000053,0.00000116,0.00000090,-0.00000013,0.00000059,0.0000003
 6,0.00000098,-0.00000010,-0.00000014,0.00000029\\\@
 The archive entry for this job was punched.


 NATURE GIVES TO EVERY TIME AND SEASON SOME BEAUTY OF ITS OWN.

                                                    --DICKENS
 Job cpu time:       0 days  7 hours 33 minutes 20.7 seconds.
 Elapsed time:       0 days  0 hours 28 minutes 51.8 seconds.
 File lengths (MBytes):  RWF=   3912 Int=      0 D2E=      0 Chk=     46 Scr=      1
 Normal termination of Gaussian 16 at Fri Jun  5 17:42:56 2026.
