 Entering Gaussian System, Link 0=/apl/gaussian/16c02/g16/._.g16
 Initial command:
 /apl/gaussian/16c02/g16/l1.exe "/lwork/users/sm2/679433.ccpbs1/gaussian/Gau-2909293.inp" -scrdir="/lwork/users/sm2/679433.ccpbs1/gaussian/"
 Default CPUs for threads: 0,1,2,3,4,5,6,7,8,9,10,11,12,13,14,15
 Default is to use a total of  16 processors:
                               16 via shared-memory
                                1 via Linda
 Entering Link 1 = /apl/gaussian/16c02/g16/l1.exe PID=   2909294.
  
 Copyright (c) 1988-2021, Gaussian, Inc.  All Rights Reserved.
  
 This is part of the Gaussian(R) 16 program.  It is based on
 the Gaussian(R) 09 system (copyright 2009, Gaussian, Inc.),
 the Gaussian(R) 03 system (copyright 2003, Gaussian, Inc.),
 the Gaussian(R) 98 system (copyright 1998, Gaussian, Inc.),
 the Gaussian(R) 94 system (copyright 1995, Gaussian, Inc.),
 the Gaussian 92(TM) system (copyright 1992, Gaussian, Inc.),
 the Gaussian 90(TM) system (copyright 1990, Gaussian, Inc.),
 the Gaussian 88(TM) system (copyright 1988, Gaussian, Inc.),
 the Gaussian 86(TM) system (copyright 1986, Carnegie Mellon
 University), and the Gaussian 82(TM) system (copyright 1983,
 Carnegie Mellon University). Gaussian is a federally registered
 trademark of Gaussian, Inc.
  
 This software contains proprietary and confidential information,
 including trade secrets, belonging to Gaussian, Inc.
  
 This software is provided under written license and may be
 used, copied, transmitted, or stored only in accord with that
 written license.
  
 The following legend is applicable only to US Government
 contracts under FAR:
  
                    RESTRICTED RIGHTS LEGEND
  
 Use, reproduction and disclosure by the US Government is
 subject to restrictions as set forth in subparagraphs (a)
 and (c) of the Commercial Computer Software - Restricted
 Rights clause in FAR 52.227-19.
  
 Gaussian, Inc.
 340 Quinnipiac St., Bldg. 40, Wallingford CT 06492
  
  
 ---------------------------------------------------------------
 Warning -- This program may not be used in any manner that
 competes with the business of Gaussian, Inc. or will provide
 assistance to any competitor of Gaussian, Inc.  The licensee
 of this program is prohibited from giving any competitor of
 Gaussian, Inc. access to this program.  By using this program,
 the user acknowledges that Gaussian, Inc. is engaged in the
 business of creating and licensing software in the field of
 computational chemistry and represents and warrants to the
 licensee that it is not a competitor of Gaussian, Inc. and that
 it will not use this program in any manner prohibited above.
 ---------------------------------------------------------------
  

 Cite this work as:
 Gaussian 16, Revision C.02,
 M. J. Frisch, G. W. Trucks, H. B. Schlegel, G. E. Scuseria, 
 M. A. Robb, J. R. Cheeseman, G. Scalmani, V. Barone, 
 G. A. Petersson, H. Nakatsuji, X. Li, M. Caricato, A. V. Marenich, 
 J. Bloino, B. G. Janesko, R. Gomperts, B. Mennucci, H. P. Hratchian, 
 J. V. Ortiz, A. F. Izmaylov, J. L. Sonnenberg, D. Williams-Young, 
 F. Ding, F. Lipparini, F. Egidi, J. Goings, B. Peng, A. Petrone, 
 T. Henderson, D. Ranasinghe, V. G. Zakrzewski, J. Gao, N. Rega, 
 G. Zheng, W. Liang, M. Hada, M. Ehara, K. Toyota, R. Fukuda, 
 J. Hasegawa, M. Ishida, T. Nakajima, Y. Honda, O. Kitao, H. Nakai, 
 T. Vreven, K. Throssell, J. A. Montgomery, Jr., J. E. Peralta, 
 F. Ogliaro, M. J. Bearpark, J. J. Heyd, E. N. Brothers, K. N. Kudin, 
 V. N. Staroverov, T. A. Keith, R. Kobayashi, J. Normand, 
 K. Raghavachari, A. P. Rendell, J. C. Burant, S. S. Iyengar, 
 J. Tomasi, M. Cossi, J. M. Millam, M. Klene, C. Adamo, R. Cammi, 
 J. W. Ochterski, R. L. Martin, K. Morokuma, O. Farkas, 
 J. B. Foresman, and D. J. Fox, Gaussian, Inc., Wallingford CT, 2019.
 
 ******************************************
 Gaussian 16:  ES64L-G16RevC.02  7-Dec-2021
                 5-Jun-2026 
 ******************************************
 %chk=TPBi.chk
 %mem=19200MB
 SetSPE:  set environment variable "OMP_PROC_BIND" = "true"
 SetSPE:  set environment variable "OMP_PLACES" = "{0},{1},{2},{3},{4},{5},{6},{7},{8},{9},{10},{11},{12},{13},{14},{15}"
 --------------------------
 #p B3LYP/6-31G(d) opt freq
 --------------------------
 1/18=20,19=15,26=3,38=1/1,3;
 2/9=110,12=2,17=6,18=5,40=1/2;
 3/5=1,6=6,7=1,11=2,25=1,30=1,71=1,74=-5/1,2,3;
 4//1;
 5/5=2,38=5/2;
 6/7=2,8=2,9=2,10=2,28=1/1;
 7//1,2,3,16;
 1/18=20,19=15,26=3/3(2);
 2/9=110/2;
 99//99;
 2/9=110/2;
 3/5=1,6=6,7=1,11=2,25=1,30=1,71=1,74=-5/1,2,3;
 4/5=5,16=3,69=1/1;
 5/5=2,38=5/2;
 7//1,2,3,16;
 1/18=20,19=15,26=3/3(-5);
 2/9=110/2;
 6/7=2,8=2,9=2,10=2,19=2,28=1/1;
 99/9=1/99;
 Leave Link    1 at Fri Jun  5 16:57:07 2026, MaxMem=  2516582400 cpu:               0.1 elap:               0.2
 (Enter /apl/gaussian/16c02/g16/l101.exe)
 ----------------------------------
 TPBi - B3LYP/6-31G(d) optimization
 ----------------------------------
 Symbolic Z-matrix:
 Charge =  0 Multiplicity = 1
 C                     3.45526  -3.97736   0.84106 
 C                     4.10415  -3.16585   1.7695 
 C                     4.10283  -1.77915   1.60526 
 C                     3.44156  -1.18902   0.51917 
 C                     3.46427   0.27202   0.37223 
 N                     4.58611   0.96955   0.41558 
 C                     4.24876   2.25605   0.11619 
 C                     5.08505   3.3791    0.01483 
 C                     4.51871   4.62576  -0.26523 
 C                     3.14138   4.75484  -0.42496 
 C                     2.29349   3.64483  -0.32623 
 C                     2.87797   2.38787  -0.08364 
 N                     2.36931   1.10302   0.10406 
 C                     0.99122   0.73745   0.05977 
 C                     0.14799   1.28421  -0.91416 
 C                    -1.20474   0.92095  -0.96448 
 C                    -1.73955   0.01072  -0.04246 
 C                    -3.14917  -0.39995  -0.05626 
 N                    -3.67621  -1.37005   0.6718 
 C                    -5.01026  -1.412     0.35421 
 C                    -6.02298  -2.25434   0.83387 
 C                    -7.32385  -2.08666   0.34188 
 C                    -7.60855  -1.10073  -0.60664 
 C                    -6.60929  -0.25089  -1.096 
 C                    -5.32287  -0.4427   -0.58804 
 N                    -4.12882   0.18589  -0.82824 
 C                    -0.88142  -0.53189   0.9253 
 C                     0.47044  -0.17555   0.98138 
 C                     2.81558  -2.01778  -0.42267 
 C                     2.81532  -3.405    -0.25685 
 H                     3.45734  -5.05702   0.96735 
 H                     4.61721  -3.61056   2.61817 
 H                     4.62435  -1.15357   2.32748 
 H                     6.15407   3.27073   0.16356 
 H                     5.15917   5.50107  -0.34114 
 H                     2.71485   5.73745  -0.6171 
 H                     1.22063   3.77682  -0.41345 
 H                     0.53004   1.95557  -1.67979 
 H                    -1.81557   1.35183  -1.75215 
 H                    -5.79375  -3.01616   1.57032 
 H                    -8.11947  -2.73296   0.70502 
 H                    -8.62787  -0.99121  -0.97201 
 H                    -6.83174   0.51402  -1.83157 
 H                    -3.99669   0.95991  -1.45899 
 H                    -1.27034  -1.24251   1.65479 
 H                     1.07957  -0.60425   1.77395 
 H                     2.32648  -1.59388  -1.29636 
 H                     2.32005  -4.0386   -0.98824 
 
 ITRead=  0  0  0  0  0  0  0  0  0  0  0  0  0  0  0  0  0  0  0  0
 ITRead=  0  0  0  0  0  0  0  0  0  0  0  0  0  0  0  0  0  0  0  0
 ITRead=  0  0  0  0  0  0  0  0
 MicOpt= -1 -1 -1 -1 -1 -1 -1 -1 -1 -1 -1 -1 -1 -1 -1 -1 -1 -1 -1 -1
 MicOpt= -1 -1 -1 -1 -1 -1 -1 -1 -1 -1 -1 -1 -1 -1 -1 -1 -1 -1 -1 -1
 MicOpt= -1 -1 -1 -1 -1 -1 -1 -1
 NAtoms=     48 NQM=       48 NQMF=       0 NMMI=      0 NMMIF=      0
                NMic=       0 NMicF=      0.
                    Isotopes and Nuclear Properties:
 (Nuclear quadrupole moments (NQMom) in fm**2, nuclear magnetic moments (NMagM)
  in nuclear magnetons)

  Atom         1           2           3           4           5           6           7           8           9          10
 IAtWgt=          12          12          12          12          12          14          12          12          12          12
 AtmWgt=  12.0000000  12.0000000  12.0000000  12.0000000  12.0000000  14.0030740  12.0000000  12.0000000  12.0000000  12.0000000
 NucSpn=           0           0           0           0           0           2           0           0           0           0
 AtZEff=  -0.0000000  -0.0000000  -0.0000000  -0.0000000  -0.0000000  -0.0000000  -0.0000000  -0.0000000  -0.0000000  -0.0000000
 NQMom=    0.0000000   0.0000000   0.0000000   0.0000000   0.0000000   2.0440000   0.0000000   0.0000000   0.0000000   0.0000000
 NMagM=    0.0000000   0.0000000   0.0000000   0.0000000   0.0000000   0.4037610   0.0000000   0.0000000   0.0000000   0.0000000
 AtZNuc=   6.0000000   6.0000000   6.0000000   6.0000000   6.0000000   7.0000000   6.0000000   6.0000000   6.0000000   6.0000000

  Atom        11          12          13          14          15          16          17          18          19          20
 IAtWgt=          12          12          14          12          12          12          12          12          14          12
 AtmWgt=  12.0000000  12.0000000  14.0030740  12.0000000  12.0000000  12.0000000  12.0000000  12.0000000  14.0030740  12.0000000
 NucSpn=           0           0           2           0           0           0           0           0           2           0
 AtZEff=  -0.0000000  -0.0000000  -0.0000000  -0.0000000  -0.0000000  -0.0000000  -0.0000000  -0.0000000  -0.0000000  -0.0000000
 NQMom=    0.0000000   0.0000000   2.0440000   0.0000000   0.0000000   0.0000000   0.0000000   0.0000000   2.0440000   0.0000000
 NMagM=    0.0000000   0.0000000   0.4037610   0.0000000   0.0000000   0.0000000   0.0000000   0.0000000   0.4037610   0.0000000
 AtZNuc=   6.0000000   6.0000000   7.0000000   6.0000000   6.0000000   6.0000000   6.0000000   6.0000000   7.0000000   6.0000000

  Atom        21          22          23          24          25          26          27          28          29          30
 IAtWgt=          12          12          12          12          12          14          12          12          12          12
 AtmWgt=  12.0000000  12.0000000  12.0000000  12.0000000  12.0000000  14.0030740  12.0000000  12.0000000  12.0000000  12.0000000
 NucSpn=           0           0           0           0           0           2           0           0           0           0
 AtZEff=  -0.0000000  -0.0000000  -0.0000000  -0.0000000  -0.0000000  -0.0000000  -0.0000000  -0.0000000  -0.0000000  -0.0000000
 NQMom=    0.0000000   0.0000000   0.0000000   0.0000000   0.0000000   2.0440000   0.0000000   0.0000000   0.0000000   0.0000000
 NMagM=    0.0000000   0.0000000   0.0000000   0.0000000   0.0000000   0.4037610   0.0000000   0.0000000   0.0000000   0.0000000
 AtZNuc=   6.0000000   6.0000000   6.0000000   6.0000000   6.0000000   7.0000000   6.0000000   6.0000000   6.0000000   6.0000000

  Atom        31          32          33          34          35          36          37          38          39          40
 IAtWgt=           1           1           1           1           1           1           1           1           1           1
 AtmWgt=   1.0078250   1.0078250   1.0078250   1.0078250   1.0078250   1.0078250   1.0078250   1.0078250   1.0078250   1.0078250
 NucSpn=           1           1           1           1           1           1           1           1           1           1
 AtZEff=  -0.0000000  -0.0000000  -0.0000000  -0.0000000  -0.0000000  -0.0000000  -0.0000000  -0.0000000  -0.0000000  -0.0000000
 NQMom=    0.0000000   0.0000000   0.0000000   0.0000000   0.0000000   0.0000000   0.0000000   0.0000000   0.0000000   0.0000000
 NMagM=    2.7928460   2.7928460   2.7928460   2.7928460   2.7928460   2.7928460   2.7928460   2.7928460   2.7928460   2.7928460
 AtZNuc=   1.0000000   1.0000000   1.0000000   1.0000000   1.0000000   1.0000000   1.0000000   1.0000000   1.0000000   1.0000000

  Atom        41          42          43          44          45          46          47          48
 IAtWgt=           1           1           1           1           1           1           1           1
 AtmWgt=   1.0078250   1.0078250   1.0078250   1.0078250   1.0078250   1.0078250   1.0078250   1.0078250
 NucSpn=           1           1           1           1           1           1           1           1
 AtZEff=  -0.0000000  -0.0000000  -0.0000000  -0.0000000  -0.0000000  -0.0000000  -0.0000000  -0.0000000
 NQMom=    0.0000000   0.0000000   0.0000000   0.0000000   0.0000000   0.0000000   0.0000000   0.0000000
 NMagM=    2.7928460   2.7928460   2.7928460   2.7928460   2.7928460   2.7928460   2.7928460   2.7928460
 AtZNuc=   1.0000000   1.0000000   1.0000000   1.0000000   1.0000000   1.0000000   1.0000000   1.0000000
 Leave Link  101 at Fri Jun  5 16:57:07 2026, MaxMem=  2516582400 cpu:               0.2 elap:               0.2
 (Enter /apl/gaussian/16c02/g16/l103.exe)

 GradGradGradGradGradGradGradGradGradGradGradGradGradGradGradGradGradGrad
 Berny optimization.
 Initialization pass.
                           ----------------------------
                           !    Initial Parameters    !
                           ! (Angstroms and Degrees)  !
 --------------------------                            --------------------------
 ! Name  Definition              Value          Derivative Info.                !
 --------------------------------------------------------------------------------
 ! R1    R(1,2)                  1.3934         estimate D2E/DX2                !
 ! R2    R(1,30)                 1.3937         estimate D2E/DX2                !
 ! R3    R(1,31)                 1.087          estimate D2E/DX2                !
 ! R4    R(2,3)                  1.3964         estimate D2E/DX2                !
 ! R5    R(2,32)                 1.0868         estimate D2E/DX2                !
 ! R6    R(3,4)                  1.4018         estimate D2E/DX2                !
 ! R7    R(3,33)                 1.0886         estimate D2E/DX2                !
 ! R8    R(4,5)                  1.4686         estimate D2E/DX2                !
 ! R9    R(4,29)                 1.4021         estimate D2E/DX2                !
 ! R10   R(5,6)                  1.3217         estimate D2E/DX2                !
 ! R11   R(5,13)                 1.4005         estimate D2E/DX2                !
 ! R12   R(6,7)                  1.3633         estimate D2E/DX2                !
 ! R13   R(7,8)                  1.4039         estimate D2E/DX2                !
 ! R14   R(7,12)                 1.3915         estimate D2E/DX2                !
 ! R15   R(8,9)                  1.3976         estimate D2E/DX2                !
 ! R16   R(8,34)                 1.0848         estimate D2E/DX2                !
 ! R17   R(9,10)                 1.3926         estimate D2E/DX2                !
 ! R18   R(9,35)                 1.0872         estimate D2E/DX2                !
 ! R19   R(10,11)                1.4003         estimate D2E/DX2                !
 ! R20   R(10,36)                1.0883         estimate D2E/DX2                !
 ! R21   R(11,12)                1.4073         estimate D2E/DX2                !
 ! R22   R(11,37)                1.0845         estimate D2E/DX2                !
 ! R23   R(12,13)                1.3946         estimate D2E/DX2                !
 ! R24   R(13,14)                1.4264         estimate D2E/DX2                !
 ! R25   R(14,15)                1.3995         estimate D2E/DX2                !
 ! R26   R(14,28)                1.3979         estimate D2E/DX2                !
 ! R27   R(15,16)                1.4016         estimate D2E/DX2                !
 ! R28   R(15,38)                1.0876         estimate D2E/DX2                !
 ! R29   R(16,17)                1.4017         estimate D2E/DX2                !
 ! R30   R(16,39)                1.0859         estimate D2E/DX2                !
 ! R31   R(17,18)                1.4683         estimate D2E/DX2                !
 ! R32   R(17,27)                1.4026         estimate D2E/DX2                !
 ! R33   R(18,19)                1.3225         estimate D2E/DX2                !
 ! R34   R(18,26)                1.378          estimate D2E/DX2                !
 ! R35   R(19,20)                1.372          estimate D2E/DX2                !
 ! R36   R(20,21)                1.4019         estimate D2E/DX2                !
 ! R37   R(20,25)                1.3875         estimate D2E/DX2                !
 ! R38   R(21,22)                1.4009         estimate D2E/DX2                !
 ! R39   R(21,40)                1.0841         estimate D2E/DX2                !
 ! R40   R(22,23)                1.3974         estimate D2E/DX2                !
 ! R41   R(22,41)                1.0875         estimate D2E/DX2                !
 ! R42   R(23,24)                1.4001         estimate D2E/DX2                !
 ! R43   R(23,42)                1.0883         estimate D2E/DX2                !
 ! R44   R(24,25)                1.3963         estimate D2E/DX2                !
 ! R45   R(24,43)                1.0843         estimate D2E/DX2                !
 ! R46   R(25,26)                1.3706         estimate D2E/DX2                !
 ! R47   R(26,44)                1.0072         estimate D2E/DX2                !
 ! R48   R(27,28)                1.3992         estimate D2E/DX2                !
 ! R49   R(27,45)                1.0901         estimate D2E/DX2                !
 ! R50   R(28,46)                1.0877         estimate D2E/DX2                !
 ! R51   R(29,30)                1.3971         estimate D2E/DX2                !
 ! R52   R(29,47)                1.0873         estimate D2E/DX2                !
 ! R53   R(30,48)                1.087          estimate D2E/DX2                !
 ! A1    A(2,1,30)             119.9689         estimate D2E/DX2                !
 ! A2    A(2,1,31)             120.0093         estimate D2E/DX2                !
 ! A3    A(30,1,31)            120.0185         estimate D2E/DX2                !
 ! A4    A(1,2,3)              119.9693         estimate D2E/DX2                !
 ! A5    A(1,2,32)             120.1206         estimate D2E/DX2                !
 ! A6    A(3,2,32)             119.9089         estimate D2E/DX2                !
 ! A7    A(2,3,4)              120.6388         estimate D2E/DX2                !
 ! A8    A(2,3,33)             119.4864         estimate D2E/DX2                !
 ! A9    A(4,3,33)             119.8744         estimate D2E/DX2                !
 ! A10   A(3,4,5)              119.2771         estimate D2E/DX2                !
 ! A11   A(3,4,29)             118.8309         estimate D2E/DX2                !
 ! A12   A(5,4,29)             121.8542         estimate D2E/DX2                !
 ! A13   A(4,5,6)              122.3358         estimate D2E/DX2                !
 ! A14   A(4,5,13)             126.682          estimate D2E/DX2                !
 ! A15   A(6,5,13)             110.8998         estimate D2E/DX2                !
 ! A16   A(5,6,7)              106.3072         estimate D2E/DX2                !
 ! A17   A(6,7,8)              128.5617         estimate D2E/DX2                !
 ! A18   A(6,7,12)             111.3892         estimate D2E/DX2                !
 ! A19   A(8,7,12)             120.0438         estimate D2E/DX2                !
 ! A20   A(7,8,9)              119.12           estimate D2E/DX2                !
 ! A21   A(7,8,34)             119.8173         estimate D2E/DX2                !
 ! A22   A(9,8,34)             121.0599         estimate D2E/DX2                !
 ! A23   A(8,9,10)             120.4279         estimate D2E/DX2                !
 ! A24   A(8,9,35)             119.5645         estimate D2E/DX2                !
 ! A25   A(10,9,35)            119.9991         estimate D2E/DX2                !
 ! A26   A(9,10,11)            121.153          estimate D2E/DX2                !
 ! A27   A(9,10,36)            119.445          estimate D2E/DX2                !
 ! A28   A(11,10,36)           119.3973         estimate D2E/DX2                !
 ! A29   A(10,11,12)           117.9501         estimate D2E/DX2                !
 ! A30   A(10,11,37)           119.7942         estimate D2E/DX2                !
 ! A31   A(12,11,37)           122.2395         estimate D2E/DX2                !
 ! A32   A(7,12,11)            121.2322         estimate D2E/DX2                !
 ! A33   A(7,12,13)            104.6377         estimate D2E/DX2                !
 ! A34   A(11,12,13)           133.9974         estimate D2E/DX2                !
 ! A35   A(5,13,12)            106.6947         estimate D2E/DX2                !
 ! A36   A(5,13,14)            127.5321         estimate D2E/DX2                !
 ! A37   A(12,13,14)           125.7557         estimate D2E/DX2                !
 ! A38   A(13,14,15)           120.2375         estimate D2E/DX2                !
 ! A39   A(13,14,28)           120.4529         estimate D2E/DX2                !
 ! A40   A(15,14,28)           119.3084         estimate D2E/DX2                !
 ! A41   A(14,15,16)           120.3491         estimate D2E/DX2                !
 ! A42   A(14,15,38)           121.2931         estimate D2E/DX2                !
 ! A43   A(16,15,38)           118.2784         estimate D2E/DX2                !
 ! A44   A(15,16,17)           120.8607         estimate D2E/DX2                !
 ! A45   A(15,16,39)           117.7819         estimate D2E/DX2                !
 ! A46   A(17,16,39)           121.3453         estimate D2E/DX2                !
 ! A47   A(16,17,18)           122.803          estimate D2E/DX2                !
 ! A48   A(16,17,27)           118.1411         estimate D2E/DX2                !
 ! A49   A(18,17,27)           119.0545         estimate D2E/DX2                !
 ! A50   A(17,18,19)           125.6337         estimate D2E/DX2                !
 ! A51   A(17,18,26)           124.6721         estimate D2E/DX2                !
 ! A52   A(19,18,26)           109.6908         estimate D2E/DX2                !
 ! A53   A(18,19,20)           106.4101         estimate D2E/DX2                !
 ! A54   A(19,20,21)           129.9122         estimate D2E/DX2                !
 ! A55   A(19,20,25)           110.7887         estimate D2E/DX2                !
 ! A56   A(21,20,25)           119.299          estimate D2E/DX2                !
 ! A57   A(20,21,22)           118.6041         estimate D2E/DX2                !
 ! A58   A(20,21,40)           120.1278         estimate D2E/DX2                !
 ! A59   A(22,21,40)           121.2681         estimate D2E/DX2                !
 ! A60   A(21,22,23)           120.7988         estimate D2E/DX2                !
 ! A61   A(21,22,41)           119.4055         estimate D2E/DX2                !
 ! A62   A(23,22,41)           119.7958         estimate D2E/DX2                !
 ! A63   A(22,23,24)           121.3377         estimate D2E/DX2                !
 ! A64   A(22,23,42)           119.3188         estimate D2E/DX2                !
 ! A65   A(24,23,42)           119.3434         estimate D2E/DX2                !
 ! A66   A(23,24,25)           116.5526         estimate D2E/DX2                !
 ! A67   A(23,24,43)           121.2583         estimate D2E/DX2                !
 ! A68   A(25,24,43)           122.1891         estimate D2E/DX2                !
 ! A69   A(20,25,24)           123.4078         estimate D2E/DX2                !
 ! A70   A(20,25,26)           104.0706         estimate D2E/DX2                !
 ! A71   A(24,25,26)           132.5214         estimate D2E/DX2                !
 ! A72   A(18,26,25)           109.038          estimate D2E/DX2                !
 ! A73   A(18,26,44)           125.7529         estimate D2E/DX2                !
 ! A74   A(25,26,44)           125.2039         estimate D2E/DX2                !
 ! A75   A(17,27,28)           121.349          estimate D2E/DX2                !
 ! A76   A(17,27,45)           119.7098         estimate D2E/DX2                !
 ! A77   A(28,27,45)           118.9405         estimate D2E/DX2                !
 ! A78   A(14,28,27)           119.9907         estimate D2E/DX2                !
 ! A79   A(14,28,46)           121.9516         estimate D2E/DX2                !
 ! A80   A(27,28,46)           118.03           estimate D2E/DX2                !
 ! A81   A(4,29,30)            120.4825         estimate D2E/DX2                !
 ! A82   A(4,29,47)            120.6749         estimate D2E/DX2                !
 ! A83   A(30,29,47)           118.8419         estimate D2E/DX2                !
 ! A84   A(1,30,29)            120.0776         estimate D2E/DX2                !
 ! A85   A(1,30,48)            119.9898         estimate D2E/DX2                !
 ! A86   A(29,30,48)           119.9317         estimate D2E/DX2                !
 ! D1    D(30,1,2,3)             0.5516         estimate D2E/DX2                !
 ! D2    D(30,1,2,32)         -179.0423         estimate D2E/DX2                !
 ! D3    D(31,1,2,3)           179.8944         estimate D2E/DX2                !
 ! D4    D(31,1,2,32)            0.3005         estimate D2E/DX2                !
 ! D5    D(2,1,30,29)           -0.451          estimate D2E/DX2                !
 ! D6    D(2,1,30,48)          179.2063         estimate D2E/DX2                !
 ! D7    D(31,1,30,29)        -179.7937         estimate D2E/DX2                !
 ! D8    D(31,1,30,48)          -0.1364         estimate D2E/DX2                !
 ! D9    D(1,2,3,4)              0.6549         estimate D2E/DX2                !
 ! D10   D(1,2,3,33)          -179.1242         estimate D2E/DX2                !
 ! D11   D(32,2,3,4)          -179.7503         estimate D2E/DX2                !
 ! D12   D(32,2,3,33)            0.4706         estimate D2E/DX2                !
 ! D13   D(2,3,4,5)           -179.7333         estimate D2E/DX2                !
 ! D14   D(2,3,4,29)            -1.9293         estimate D2E/DX2                !
 ! D15   D(33,3,4,5)             0.045          estimate D2E/DX2                !
 ! D16   D(33,3,4,29)          177.849          estimate D2E/DX2                !
 ! D17   D(3,4,5,6)             50.8608         estimate D2E/DX2                !
 ! D18   D(3,4,5,13)          -132.7476         estimate D2E/DX2                !
 ! D19   D(29,4,5,6)          -126.8742         estimate D2E/DX2                !
 ! D20   D(29,4,5,13)           49.5174         estimate D2E/DX2                !
 ! D21   D(3,4,29,30)            2.0278         estimate D2E/DX2                !
 ! D22   D(3,4,29,47)         -177.6758         estimate D2E/DX2                !
 ! D23   D(5,4,29,30)          179.7726         estimate D2E/DX2                !
 ! D24   D(5,4,29,47)            0.0691         estimate D2E/DX2                !
 ! D25   D(4,5,6,7)            174.2039         estimate D2E/DX2                !
 ! D26   D(13,5,6,7)            -2.699          estimate D2E/DX2                !
 ! D27   D(4,5,13,12)         -174.1006         estimate D2E/DX2                !
 ! D28   D(4,5,13,14)            7.3584         estimate D2E/DX2                !
 ! D29   D(6,5,13,12)            2.6363         estimate D2E/DX2                !
 ! D30   D(6,5,13,14)         -175.9048         estimate D2E/DX2                !
 ! D31   D(5,6,7,8)           -179.0753         estimate D2E/DX2                !
 ! D32   D(5,6,7,12)             1.7814         estimate D2E/DX2                !
 ! D33   D(6,7,8,9)           -177.9949         estimate D2E/DX2                !
 ! D34   D(6,7,8,34)             1.4045         estimate D2E/DX2                !
 ! D35   D(12,7,8,9)             1.0837         estimate D2E/DX2                !
 ! D36   D(12,7,8,34)         -179.5169         estimate D2E/DX2                !
 ! D37   D(6,7,12,11)          176.1881         estimate D2E/DX2                !
 ! D38   D(6,7,12,13)           -0.177          estimate D2E/DX2                !
 ! D39   D(8,7,12,11)           -3.0381         estimate D2E/DX2                !
 ! D40   D(8,7,12,13)         -179.4032         estimate D2E/DX2                !
 ! D41   D(7,8,9,10)             0.7986         estimate D2E/DX2                !
 ! D42   D(7,8,9,35)           179.7412         estimate D2E/DX2                !
 ! D43   D(34,8,9,10)         -178.5931         estimate D2E/DX2                !
 ! D44   D(34,8,9,35)            0.3496         estimate D2E/DX2                !
 ! D45   D(8,9,10,11)           -0.7766         estimate D2E/DX2                !
 ! D46   D(8,9,10,36)          178.4225         estimate D2E/DX2                !
 ! D47   D(35,9,10,11)        -179.7147         estimate D2E/DX2                !
 ! D48   D(35,9,10,36)          -0.5155         estimate D2E/DX2                !
 ! D49   D(9,10,11,12)          -1.1025         estimate D2E/DX2                !
 ! D50   D(9,10,11,37)         177.4645         estimate D2E/DX2                !
 ! D51   D(36,10,11,12)        179.698          estimate D2E/DX2                !
 ! D52   D(36,10,11,37)         -1.7351         estimate D2E/DX2                !
 ! D53   D(10,11,12,7)           3.0135         estimate D2E/DX2                !
 ! D54   D(10,11,12,13)        178.1219         estimate D2E/DX2                !
 ! D55   D(37,11,12,7)        -175.5161         estimate D2E/DX2                !
 ! D56   D(37,11,12,13)         -0.4077         estimate D2E/DX2                !
 ! D57   D(7,12,13,5)           -1.4104         estimate D2E/DX2                !
 ! D58   D(7,12,13,14)         177.164          estimate D2E/DX2                !
 ! D59   D(11,12,13,5)        -177.0885         estimate D2E/DX2                !
 ! D60   D(11,12,13,14)          1.4858         estimate D2E/DX2                !
 ! D61   D(5,13,14,15)        -140.5945         estimate D2E/DX2                !
 ! D62   D(5,13,14,28)          38.999          estimate D2E/DX2                !
 ! D63   D(12,13,14,15)         41.1276         estimate D2E/DX2                !
 ! D64   D(12,13,14,28)       -139.2789         estimate D2E/DX2                !
 ! D65   D(13,14,15,16)        179.642          estimate D2E/DX2                !
 ! D66   D(13,14,15,38)          2.9391         estimate D2E/DX2                !
 ! D67   D(28,14,15,16)          0.0438         estimate D2E/DX2                !
 ! D68   D(28,14,15,38)       -176.6591         estimate D2E/DX2                !
 ! D69   D(13,14,28,27)       -179.7096         estimate D2E/DX2                !
 ! D70   D(13,14,28,46)          2.2433         estimate D2E/DX2                !
 ! D71   D(15,14,28,27)         -0.1123         estimate D2E/DX2                !
 ! D72   D(15,14,28,46)       -178.1594         estimate D2E/DX2                !
 ! D73   D(14,15,16,17)          0.2175         estimate D2E/DX2                !
 ! D74   D(14,15,16,39)       -178.5359         estimate D2E/DX2                !
 ! D75   D(38,15,16,17)        177.0184         estimate D2E/DX2                !
 ! D76   D(38,15,16,39)         -1.7351         estimate D2E/DX2                !
 ! D77   D(15,16,17,18)       -179.9762         estimate D2E/DX2                !
 ! D78   D(15,16,17,27)         -0.3988         estimate D2E/DX2                !
 ! D79   D(39,16,17,18)         -1.2676         estimate D2E/DX2                !
 ! D80   D(39,16,17,27)        178.3098         estimate D2E/DX2                !
 ! D81   D(16,17,18,19)        171.1027         estimate D2E/DX2                !
 ! D82   D(16,17,18,26)         -9.6318         estimate D2E/DX2                !
 ! D83   D(27,17,18,19)         -8.471          estimate D2E/DX2                !
 ! D84   D(27,17,18,26)        170.7946         estimate D2E/DX2                !
 ! D85   D(16,17,27,28)          0.331          estimate D2E/DX2                !
 ! D86   D(16,17,27,45)       -179.9817         estimate D2E/DX2                !
 ! D87   D(18,17,27,28)        179.9246         estimate D2E/DX2                !
 ! D88   D(18,17,27,45)         -0.388          estimate D2E/DX2                !
 ! D89   D(17,18,19,20)        179.7849         estimate D2E/DX2                !
 ! D90   D(26,18,19,20)          0.4264         estimate D2E/DX2                !
 ! D91   D(17,18,26,25)       -179.7965         estimate D2E/DX2                !
 ! D92   D(17,18,26,44)         -0.5998         estimate D2E/DX2                !
 ! D93   D(19,18,26,25)         -0.4305         estimate D2E/DX2                !
 ! D94   D(19,18,26,44)        178.7662         estimate D2E/DX2                !
 ! D95   D(18,19,20,21)        179.8155         estimate D2E/DX2                !
 ! D96   D(18,19,20,25)         -0.2784         estimate D2E/DX2                !
 ! D97   D(19,20,21,22)        179.8906         estimate D2E/DX2                !
 ! D98   D(19,20,21,40)         -0.0897         estimate D2E/DX2                !
 ! D99   D(25,20,21,22)         -0.0088         estimate D2E/DX2                !
 ! D100  D(25,20,21,40)       -179.989          estimate D2E/DX2                !
 ! D101  D(19,20,25,24)       -179.8499         estimate D2E/DX2                !
 ! D102  D(19,20,25,26)          0.0195         estimate D2E/DX2                !
 ! D103  D(21,20,25,24)          0.0675         estimate D2E/DX2                !
 ! D104  D(21,20,25,26)        179.9369         estimate D2E/DX2                !
 ! D105  D(20,21,22,23)         -0.0298         estimate D2E/DX2                !
 ! D106  D(20,21,22,41)       -179.999          estimate D2E/DX2                !
 ! D107  D(40,21,22,23)        179.9502         estimate D2E/DX2                !
 ! D108  D(40,21,22,41)         -0.019          estimate D2E/DX2                !
 ! D109  D(21,22,23,24)          0.013          estimate D2E/DX2                !
 ! D110  D(21,22,23,42)       -179.9663         estimate D2E/DX2                !
 ! D111  D(41,22,23,24)        179.9821         estimate D2E/DX2                !
 ! D112  D(41,22,23,42)          0.0028         estimate D2E/DX2                !
 ! D113  D(22,23,24,25)          0.0412         estimate D2E/DX2                !
 ! D114  D(22,23,24,43)       -179.9672         estimate D2E/DX2                !
 ! D115  D(42,23,24,25)       -179.9795         estimate D2E/DX2                !
 ! D116  D(42,23,24,43)          0.0121         estimate D2E/DX2                !
 ! D117  D(23,24,25,20)         -0.0825         estimate D2E/DX2                !
 ! D118  D(23,24,25,26)       -179.9107         estimate D2E/DX2                !
 ! D119  D(43,24,25,20)        179.926          estimate D2E/DX2                !
 ! D120  D(43,24,25,26)          0.0978         estimate D2E/DX2                !
 ! D121  D(20,25,26,18)          0.2399         estimate D2E/DX2                !
 ! D122  D(20,25,26,44)       -178.9623         estimate D2E/DX2                !
 ! D123  D(24,25,26,18)       -179.9079         estimate D2E/DX2                !
 ! D124  D(24,25,26,44)          0.8899         estimate D2E/DX2                !
 ! D125  D(17,27,28,14)         -0.0787         estimate D2E/DX2                !
 ! D126  D(17,27,28,46)        178.0441         estimate D2E/DX2                !
 ! D127  D(45,27,28,14)       -179.7683         estimate D2E/DX2                !
 ! D128  D(45,27,28,46)         -1.6455         estimate D2E/DX2                !
 ! D129  D(4,29,30,1)           -0.8566         estimate D2E/DX2                !
 ! D130  D(4,29,30,48)         179.4859         estimate D2E/DX2                !
 ! D131  D(47,29,30,1)         178.8523         estimate D2E/DX2                !
 ! D132  D(47,29,30,48)         -0.8052         estimate D2E/DX2                !
 --------------------------------------------------------------------------------
 Trust Radius=3.00D-01 FncErr=1.00D-07 GrdErr=1.00D-06 EigMax=2.50D+02 EigMin=1.00D-04
 Number of steps in this run=    281 maximum allowed number of steps=    288.
 GradGradGradGradGradGradGradGradGradGradGradGradGradGradGradGradGradGrad

 Leave Link  103 at Fri Jun  5 16:57:07 2026, MaxMem=  2516582400 cpu:               0.1 elap:               0.1
 (Enter /apl/gaussian/16c02/g16/l202.exe)
                          Input orientation:                          
 ---------------------------------------------------------------------
 Center     Atomic      Atomic             Coordinates (Angstroms)
 Number     Number       Type             X           Y           Z
 ---------------------------------------------------------------------
      1          6           0        3.455259   -3.977361    0.841059
      2          6           0        4.104147   -3.165854    1.769499
      3          6           0        4.102830   -1.779154    1.605258
      4          6           0        3.441559   -1.189020    0.519172
      5          6           0        3.464274    0.272018    0.372235
      6          7           0        4.586110    0.969549    0.415584
      7          6           0        4.248761    2.256046    0.116185
      8          6           0        5.085047    3.379102    0.014827
      9          6           0        4.518710    4.625760   -0.265233
     10          6           0        3.141377    4.754843   -0.424962
     11          6           0        2.293488    3.644832   -0.326228
     12          6           0        2.877974    2.387870   -0.083640
     13          7           0        2.369306    1.103021    0.104055
     14          6           0        0.991217    0.737445    0.059772
     15          6           0        0.147986    1.284210   -0.914161
     16          6           0       -1.204742    0.920949   -0.964482
     17          6           0       -1.739549    0.010719   -0.042457
     18          6           0       -3.149166   -0.399945   -0.056256
     19          7           0       -3.676213   -1.370046    0.671796
     20          6           0       -5.010258   -1.412002    0.354207
     21          6           0       -6.022981   -2.254344    0.833867
     22          6           0       -7.323847   -2.086662    0.341883
     23          6           0       -7.608554   -1.100725   -0.606645
     24          6           0       -6.609289   -0.250887   -1.095996
     25          6           0       -5.322875   -0.442697   -0.588042
     26          7           0       -4.128823    0.185889   -0.828240
     27          6           0       -0.881417   -0.531893    0.925300
     28          6           0        0.470440   -0.175551    0.981383
     29          6           0        2.815577   -2.017778   -0.422669
     30          6           0        2.815321   -3.405002   -0.256848
     31          1           0        3.457338   -5.057017    0.967349
     32          1           0        4.617207   -3.610564    2.618168
     33          1           0        4.624354   -1.153569    2.327479
     34          1           0        6.154075    3.270727    0.163562
     35          1           0        5.159167    5.501067   -0.341142
     36          1           0        2.714850    5.737447   -0.617102
     37          1           0        1.220629    3.776820   -0.413448
     38          1           0        0.530040    1.955570   -1.679793
     39          1           0       -1.815568    1.351830   -1.752149
     40          1           0       -5.793753   -3.016165    1.570318
     41          1           0       -8.119472   -2.732963    0.705024
     42          1           0       -8.627871   -0.991214   -0.972008
     43          1           0       -6.831738    0.514023   -1.831573
     44          1           0       -3.996691    0.959914   -1.458994
     45          1           0       -1.270343   -1.242509    1.654795
     46          1           0        1.079573   -0.604250    1.773955
     47          1           0        2.326484   -1.593879   -1.296359
     48          1           0        2.320050   -4.038598   -0.988238
 ---------------------------------------------------------------------
                    Distance matrix (angstroms):
                    1          2          3          4          5
     1  C    0.000000
     2  C    1.393413   0.000000
     3  C    2.415670   1.396392   0.000000
     4  C    2.806892   2.431093   1.401828   0.000000
     5  C    4.275172   3.765733   2.476975   1.468583   0.000000
     6  N    5.092325   4.378005   3.033851   2.445434   1.321721
     7  C    6.325381   5.670216   4.303658   3.561243   2.148802
     8  C    7.580001   6.846713   5.486513   4.880897   3.522587
     9  C    8.738907   8.063575   6.685403   5.965501   4.524740
    10  C    8.829084   8.275266   6.909364   6.025862   4.564593
    11  C    7.798083   7.352279   6.035229   5.039731   3.637921
    12  C    6.457901   5.981761   4.660122   3.670851   2.242409
    13  N    5.247166   4.899661   3.683158   2.564274   1.400515
    14  C    5.376924   5.277238   4.289981   3.150633   2.535797
    15  C    6.457784   6.531179   5.601112   4.361069   3.698258
    16  C    6.997787   7.236084   6.485711   5.314255   4.899759
    17  C    6.608435   6.893663   6.328666   5.347773   5.226856
    18  C    7.564490   7.974596   7.566657   6.662688   6.661286
    19  N    7.595040   8.060017   7.845523   7.121709   7.332985
    20  C    8.859068   9.388900   9.205885   8.456367   8.640252
    21  C    9.633581  10.211023  10.166263   9.529505   9.828714
    22  C   10.955047  11.567273  11.500419  10.804219  11.043000
    23  C   11.522970  12.128404  11.937725  11.107666  11.200453
    24  C   10.905682  11.466726  11.152662  10.222935  10.193419
    25  C    9.570361  10.091696   9.769370   8.865564   8.868311
    26  N    8.811215   9.260897   8.805874   7.811310   7.687892
    27  C    5.539414   5.701427   5.182733   4.391455   4.453896
    28  C    4.835556   4.771464   4.019331   3.173059   3.087786
    29  C    2.417884   2.789998   2.413803   1.402054   2.509152
    30  C    1.393741   2.413368   2.787202   2.430012   3.786471
    31  H    1.087019   2.153672   3.401172   3.893907   5.362165
    32  H    2.154712   1.086847   2.155141   3.413475   4.631189
    33  H    3.398533   2.152033   1.088553   2.161073   2.683480
    34  H    7.763851   6.943400   5.638031   5.231973   4.033712
    35  H    9.702654   8.982393   7.609595   6.960429   5.542970
    36  H    9.851494   9.321737   7.960193   7.056569   5.604582
    37  H    8.166681   7.828196   6.576558   5.519228   4.234959
    38  H    7.078931   7.134482   6.124096   4.816725   3.956627
    39  H    7.931369   8.237384   7.490172   6.265157   5.792731
    40  H    9.327376   9.901036   9.973654   9.472822   9.897404
    41  H   11.642227  12.277515  12.292471  11.665151  11.971793
    42  H   12.578009  13.204136  13.012836  12.162807  12.232036
    43  H   11.538535  12.087299  11.689108  10.675532  10.532008
    44  H    9.230303   9.647213   9.082642   7.991159   7.713145
    45  H    5.520226   5.709427   5.400133   4.847114   5.133746
    46  H    4.229901   3.963570   3.247914   2.737776   2.901631
    47  H    3.394654   3.876942   3.407215   2.168745   2.749608
    48  H    2.153782   3.398499   3.874224   3.413234   4.662783
                    6          7          8          9         10
     6  N    0.000000
     7  C    1.363274   0.000000
     8  C    2.493088   1.403888   0.000000
     9  C    3.719668   2.415346   1.397615   0.000000
    10  C    4.137901   2.786239   2.421556   1.392560   0.000000
    11  C    3.600491   2.438759   2.824842   2.432602   1.400281
    12  C    2.275651   1.391533   2.421448   2.780853   2.405919
    13  N    2.242563   2.204986   3.544539   4.143187   3.769848
    14  C    3.619907   3.594568   4.872352   5.260021   4.582318
    15  C    4.643724   4.338482   5.442992   5.539882   4.609230
    16  C    5.953227   5.717606   6.823709   6.853647   5.820531
    17  C    6.414290   6.397384   7.610808   7.779077   6.817365
    18  C    7.869729   7.862146   9.060271   9.170480   8.141174
    19  N    8.591003   8.732838   9.987276  10.197278   9.230205
    20  C    9.887661   9.961961  11.179671  11.297766  10.251158
    21  C   11.096002  11.241324  12.481780  12.636103  11.605982
    22  C   12.296054  12.362658  13.563266  13.626128  12.526578
    23  C   12.411318  12.344485  13.475258  13.415652  12.242618
    24  C   11.362715  11.209431  12.295049  12.178021  10.981034
    25  C   10.059309   9.969722  11.103803  11.074758   9.934012
    26  N    8.838058   8.681094   9.787889   9.737005   8.596149
    27  C    5.692802   5.894573   7.191908   7.561754   6.779061
    28  C    4.309306   4.575690   5.904607   6.402744   5.781046
    29  C    3.572335   4.539818   5.870963   6.860178   6.780453
    30  C    4.767028   5.851612   7.158878   8.209430   8.168087
    31  H    6.156141   7.404844   8.644352   9.818448   9.915188
    32  H    5.082300   6.388488   7.473398   8.727011   9.023234
    33  H    2.857348   4.081221   5.109374   6.335137   6.684646
    34  H    2.795970   2.159177   1.084752   2.166656   3.409591
    35  H    4.629868   3.401198   2.152892   1.087248   2.152986
    36  H    5.225027   3.874371   3.402787   2.147923   1.088280
    37  H    4.460328   3.429701   3.908366   3.408813   2.155444
    38  H    4.670605   4.140617   5.064215   5.004037   4.028600
    39  H    6.769541   6.409708   7.406113   7.283722   6.157372
    40  H   11.178590  11.435156  12.714845  12.965923  12.008591
    41  H   13.237228  13.349537  14.566847  14.656597  13.570219
    42  H   13.430536  13.324283  14.426282  14.313718  13.108456
    43  H   11.645792  11.384457  12.394661  12.173433  10.928226
    44  H    8.785136   8.494035   9.513285   9.347489   8.150014
    45  H    6.381762   6.713249   8.027438   8.463818   7.730259
    46  H    4.076496   4.579655   5.916540   6.583233   6.148671
    47  H    3.822018   4.529056   5.836044   6.674802   6.459849
    48  H    5.673384   6.675494   7.979575   8.968163   8.849660
                   11         12         13         14         15
    11  C    0.000000
    12  C    1.407277   0.000000
    13  N    2.579088   1.394563   0.000000
    14  C    3.209019   2.510840   1.426441   0.000000
    15  C    3.243668   3.059520   2.450276   1.399476   0.000000
    16  C    4.479345   4.426772   3.734801   2.430022   1.401558
    17  C    5.436239   5.193656   4.254090   2.827661   2.438121
    18  C    6.786428   6.640714   5.721725   4.295334   3.800473
    19  N    7.860178   7.592758   6.556423   5.157615   4.917808
    20  C    8.909505   8.766695   7.800377   6.381577   5.956996
    21  C   10.262055  10.080623   9.068352   7.664790   7.325149
    22  C   11.215594  11.148079  10.207245   8.786095   8.292691
    23  C   10.984051  11.063954  10.243011   8.819242   8.120738
    24  C    9.748262   9.899295   9.159058   7.751147   6.931836
    25  C    8.647857   8.690250   7.876413   6.456017   5.746206
    26  N    7.311798   7.382300   6.628422   5.225666   4.416422
    27  C    5.393643   4.865798   3.730226   2.422213   2.782358
    28  C    4.430426   3.674455   2.451559   1.397905   2.414118
    29  C    5.687445   4.419113   3.196245   3.339505   4.273257
    30  C    7.069462   5.795799   4.544388   4.537342   5.434652
    31  H    8.874123   7.540993   6.314678   6.362487   7.396150
    32  H    8.167613   6.804844   5.795836   6.212759   7.510665
    33  H    5.958167   4.626567   3.888581   4.681679   6.040601
    34  H    3.909473   3.401968   4.361991   5.751816   6.417230
    35  H    3.414373   3.868093   5.227268   6.342289   6.574357
    36  H    2.154342   3.395712   4.702911   5.331894   5.148627
    37  H    1.084461   2.187407   2.955751   3.084536   2.759417
    38  H    2.792042   2.871826   2.700343   2.173154   1.087604
    39  H    4.916854   5.087891   4.584819   3.396846   2.135964
    40  H   10.647499  10.350749   9.260300   7.899820   7.744038
    41  H   12.254367  12.156839  11.184382   9.770606   9.333290
    42  H   11.882173  12.024636  11.246405   9.827496   9.066232
    43  H    9.764107  10.042165   9.420869   8.051442   7.081764
    44  H    6.932410   7.154836   6.556639   5.218752   4.192894
    45  H    6.364861   5.780168   4.599277   3.402789   3.872402
    46  H    4.892756   3.954451   2.714176   2.178618   3.414688
    47  H    5.327883   4.198708   3.039122   3.009502   3.629782
    48  H    7.711943   6.513760   5.256594   5.067022   5.749403
                   16         17         18         19         20
    16  C    0.000000
    17  C    1.401666   0.000000
    18  C    2.520004   1.468283   0.000000
    19  N    3.746229   2.483412   1.322473   0.000000
    20  C    4.654412   3.588735   2.157870   1.371970   0.000000
    21  C    6.044168   4.924048   3.534109   2.513080   1.401864
    22  C    6.942317   5.977550   4.520121   3.731972   2.409982
    23  C    6.724880   5.999902   4.547544   4.143700   2.787699
    24  C    5.531692   4.989263   3.616037   3.602852   2.451157
    25  C    4.354338   3.652872   2.238221   2.271269   1.387484
    26  N    3.018132   2.521263   1.378002   2.208144   2.174480
    27  C    2.405528   1.402631   2.474580   2.928762   4.260055
    28  C    2.791942   2.442744   3.772081   4.326360   5.653337
    29  C    5.009256   5.000854   6.191107   6.615191   7.887598
    30  C    5.947731   5.697364   6.681744   6.866108   8.098465
    31  H    7.823237   7.328662   8.147513   8.035462   9.239170
    32  H    8.201529   7.784663   8.819136   8.808467  10.131500
    33  H    7.008495   6.889952   8.165645   8.466851   9.838006
    34  H    7.806800   8.542798  10.003622  10.882538  12.108123
    35  H    7.865454   8.821871  10.194680  11.238424  12.316300
    36  H    6.219529   7.277864   8.506987   9.644864  10.570495
    37  H    3.787092   4.804560   6.055416   7.186588   8.144760
    38  H    2.142797   3.407983   4.660566   5.855105   6.795042
    39  H    1.085903   2.174259   2.779074   4.092202   4.720333
    40  H    6.556302   5.310333   4.060072   2.828608   2.160122
    41  H    7.996988   6.984979   5.543146   4.647709   3.396354
    42  H    7.665459   7.022600   5.586091   5.231111   3.875955
    43  H    5.707934   5.420759   4.189084   4.446787   3.435840
    44  H    2.835673   2.828823   2.129599   3.173593   3.152936
    45  H    3.397862   2.161342   2.677234   2.602069   3.963234
    46  H    3.878577   3.409544   4.612336   4.941527   6.305092
    47  H    4.347879   4.547486   5.739867   6.321084   7.522316
    48  H    6.084557   5.811353   6.634810   6.769937   7.901556
                   21         22         23         24         25
    21  C    0.000000
    22  C    1.400863   0.000000
    23  C    2.433095   1.397439   0.000000
    24  C    2.842880   2.438885   1.400078   0.000000
    25  C    2.407081   2.751594   2.378586   1.396305   0.000000
    26  N    3.507873   4.091681   3.716585   2.532820   1.370612
    27  C    5.423180   6.653013   6.922773   6.080552   4.693049
    28  C    6.819653   8.050604   8.285404   7.378600   6.008075
    29  C    8.930564  10.168442  10.466009   9.612667   8.291118
    30  C    8.979380  10.242032  10.681255   9.973759   8.666901
    31  H    9.886822  11.200365  11.856798  11.344304  10.040086
    32  H   10.873669  12.251226  12.890614  12.292951  10.914229
    33  H   10.807791  12.147953  12.579981  11.778359  10.390042
    34  H   13.388667  14.504751  14.460731  13.300064  12.086141
    35  H   13.658970  14.624151  14.375981  13.120645  12.052489
    36  H   11.929951  12.763690  12.382785  11.091846  10.139036
    37  H    9.507924  10.390333  10.088718   8.831529   7.787955
    38  H    8.184372   9.061476   8.759525   7.495284   6.418739
    39  H    6.115087   6.822708   6.394207   5.096960   4.108123
    40  H    1.084102   2.171224   3.420757   3.926969   3.391604
    41  H    2.154287   1.087472   2.155392   3.418337   3.839048
    42  H    3.412057   2.150999   1.088343   2.153632   3.372136
    43  H    3.927151   3.424857   2.170554   1.084272   2.176775
    44  H    4.437851   4.857443   4.244795   2.902322   2.117697
    45  H    4.928012   6.251499   6.731057   6.087241   4.700322
    46  H    7.352064   8.652505   9.022044   8.214625   6.826160
    47  H    8.642202   9.800794   9.971152   9.038352   7.767858
    48  H    8.724093   9.928949  10.361172   9.700075   8.456061
                   26         27         28         29         30
    26  N    0.000000
    27  C    3.759755   0.000000
    28  C    4.955663   1.399158   0.000000
    29  C    7.296940   4.206262   3.296185   0.000000
    30  C    7.838503   4.828882   4.178641   1.397100   0.000000
    31  H    9.394788   6.269235   5.722802   3.403084   2.154065
    32  H   10.138236   6.525250   5.627971   3.876793   3.399230
    33  H    9.400576   5.715427   4.474762   3.403211   3.875603
    34  H   10.781367   8.033574   6.696967   6.281522   7.475920
    35  H   10.712382   8.630709   7.480456   7.876045   9.209711
    36  H    8.814774   7.390316   6.523502   7.758316   9.150096
    37  H    6.456274   4.977535   4.257883   6.010101   7.358406
    38  H    5.055879   3.868617   3.409851   4.753055   5.998585
    39  H    2.750305   3.404377   3.876973   5.879564   6.805035
    40  H    4.333384   5.542445   6.903336   8.893219   8.809420
    41  H    5.176473   7.568532   8.966790  11.016283  10.997570
    42  H    4.652706   7.988636   9.341322  11.502527  11.716846
    43  H    2.901740   6.640829   7.855573  10.073019  10.531109
    44  H    1.007187   4.197056   5.215360   7.506506   8.179313
    45  H    4.046812   1.090138   2.149932   4.648832   5.002340
    46  H    5.875638   2.137973   1.087656   3.136388   3.870555
    47  H    6.712503   4.044034   3.262616   1.087308   2.144695
    48  H    7.711022   5.119375   4.714192   2.156185   1.087046
                   31         32         33         34         35
    31  H    0.000000
    32  H    2.482484   0.000000
    33  H    4.295205   2.474141   0.000000
    34  H    8.790323   7.465870   5.157226   0.000000
    35  H   10.774112   9.595470   7.189697   2.493789   0.000000
    36  H   10.935366  10.073294   7.733231   4.303767   2.471176
    37  H    9.216623   8.677608   6.588381   4.992791   4.300039
    38  H    8.046913   8.133834   6.518312   6.062786   5.982588
    39  H    8.733413   9.225270   8.024524   8.418273   8.237356
    40  H    9.492699  10.480429  10.610350  13.574040  14.005833
    41  H   11.810698  12.909427  12.943414  15.494245  15.659373
    42  H   12.897447  13.970772  13.657762  15.425939  15.252216
    43  H   12.030608  12.957266  12.301245  13.424280  13.071870
    44  H    9.881961  10.569379   9.650213  10.536157  10.281118
    45  H    6.113429   6.418646   5.933622   8.815614   9.528808
    46  H    5.111900   4.718631   3.629548   6.584784   7.641440
    47  H    4.289118   4.963664   4.313500   6.359734   7.699012
    48  H    2.480911   4.297244   4.962579   8.333824   9.974193
                   36         37         38         39         40
    36  H    0.000000
    37  H    2.473506   0.000000
    38  H    4.495031   2.323251   0.000000
    39  H    6.406767   4.109889   2.423141   0.000000
    40  H   12.401889   9.964011   8.675928   6.778209   0.000000
    41  H   13.815875  11.439656  10.123426   7.903318   2.497580
    42  H   13.193110  10.956235   9.646337   7.246099   4.312316
    43  H   10.949723   8.803268   7.503123   5.086274   5.011238
    44  H    8.281207   6.020677   4.640191   2.235361   5.311814
    45  H    8.352429   5.972959   4.958686   4.316842   4.859448
    46  H    6.971973   4.898816   4.333940   4.964019   7.287071
    47  H    7.372961   5.553994   3.996601   5.103090   8.728058
    48  H    9.791051   7.913272   6.293841   6.836930   8.568861
                   41         42         43         44         45
    41  H    0.000000
    42  H    2.470748   0.000000
    43  H    4.316886   2.496134   0.000000
    44  H    5.942865   5.048949   2.893980   0.000000
    45  H    7.073478   7.816423   6.794798   4.688211   0.000000
    46  H    9.502445  10.095767   8.765797   6.218281   2.437966
    47  H   10.696778  10.975714   9.412902   6.821353   4.665826
    48  H   10.656240  11.364145  10.256354   8.068951   5.262571
                   46         47         48
    46  H    0.000000
    47  H    3.458465   0.000000
    48  H    4.578563   2.464069   0.000000
 Stoichiometry    C26H18N4
 Framework group  C1[X(C26H18N4)]
 Deg. of freedom   138
 Full point group                 C1      NOp   1
 Largest Abelian subgroup         C1      NOp   1
 Largest concise Abelian subgroup C1      NOp   1
                         Standard orientation:                         
 ---------------------------------------------------------------------
 Center     Atomic      Atomic             Coordinates (Angstroms)
 Number     Number       Type             X           Y           Z
 ---------------------------------------------------------------------
      1          6           0        2.431155    4.701141    0.422255
      2          6           0        3.285858    4.276070   -0.592830
      3          6           0        3.593227    2.920236   -0.723793
      4          6           0        3.038800    1.974392    0.149769
      5          6           0        3.387186    0.556867   -0.011445
      6          7           0        4.639110    0.141970   -0.097999
      7          6           0        4.591117   -1.220431   -0.106893
      8          6           0        5.656010   -2.133231   -0.167721
      9          6           0        5.376984   -3.502121   -0.207888
     10          6           0        4.059708   -3.953780   -0.204551
     11          6           0        2.986386   -3.056442   -0.144956
     12          6           0        3.279159   -1.682310   -0.064500
     13          7           0        2.499791   -0.526560   -0.024045
     14          6           0        1.074054   -0.482058   -0.029456
     15          6           0        0.337420   -1.400177    0.727486
     16          6           0       -1.063369   -1.353837    0.729772
     17          6           0       -1.752261   -0.394924   -0.025595
     18          6           0       -3.217656   -0.307405   -0.054094
     19          7           0       -3.920722    0.666519   -0.607363
     20          6           0       -5.241394    0.351254   -0.410548
     21          6           0       -6.398268    1.044560   -0.792895
     22          6           0       -7.646246    0.497827   -0.467239
     23          6           0       -7.738521   -0.713384    0.223622
     24          6           0       -6.593438   -1.418859    0.612609
     25          6           0       -5.364344   -0.848668    0.275152
     26          7           0       -4.069692   -1.246336    0.485658
     27          6           0       -1.000443    0.521030   -0.776042
     28          6           0        0.398165    0.482378   -0.782566
     29          6           0        2.201898    2.417730    1.183597
     30          6           0        1.892945    3.774083    1.312990
     31          1           0        2.192803    5.756634    0.525859
     32          1           0        3.719265    4.998760   -1.279208
     33          1           0        4.273106    2.598542   -1.510702
     34          1           0        6.677596   -1.769327   -0.192701
     35          1           0        6.196053   -4.215275   -0.259336
     36          1           0        3.860293   -5.022076   -0.262251
     37          1           0        1.969014   -3.429797   -0.185163
     38          1           0        0.829885   -2.129308    1.366806
     39          1           0       -1.592488   -2.070472    1.350781
     40          1           0       -6.317832    1.983207   -1.329317
     41          1           0       -8.552173    1.024723   -0.757534
     42          1           0       -8.720533   -1.116457    0.463775
     43          1           0       -6.666539   -2.358805    1.148149
     44          1           0       -3.791378   -2.095966    0.949442
     45          1           0       -1.510035    1.277911   -1.372574
     46          1           0        0.926339    1.197680   -1.408961
     47          1           0        1.786027    1.714308    1.900875
     48          1           0        1.236401    4.106921    2.112888
 ---------------------------------------------------------------------
 Rotational constants (GHZ):           0.2686525           0.0742908           0.0600126
 Leave Link  202 at Fri Jun  5 16:57:07 2026, MaxMem=  2516582400 cpu:               0.1 elap:               0.1
 (Enter /apl/gaussian/16c02/g16/l301.exe)
 Standard basis: 6-31G(d) (6D, 7F)
 Ernie: Thresh=  0.10000D-02 Tol=  0.10000D-05 Strict=F.
 There are   486 symmetry adapted cartesian basis functions of A   symmetry.
 There are   486 symmetry adapted basis functions of A   symmetry.
   486 basis functions,   912 primitive gaussians,   486 cartesian basis functions
   101 alpha electrons      101 beta electrons
       nuclear repulsion energy      2498.3904548695 Hartrees.
 IExCor=  402 DFT=T Ex+Corr=B3LYP ExCW=0 ScaHFX=  0.200000
 ScaDFX=  0.800000  0.720000  1.000000  0.810000 ScalE2=  1.000000  1.000000
 IRadAn=      5 IRanWt=     -1 IRanGd=            0 ICorTp=0 IEmpDi=  4
 NAtoms=   48 NActive=   48 NUniq=   48 SFac= 1.00D+00 NAtFMM=   60 NAOKFM=F Big=F
 Integral buffers will be    131072 words long.
 Raffenetti 2 integral format.
 Two-electron integral symmetry is turned on.
 Leave Link  301 at Fri Jun  5 16:57:07 2026, MaxMem=  2516582400 cpu:               0.1 elap:               0.1
 (Enter /apl/gaussian/16c02/g16/l302.exe)
 NPDir=0 NMtPBC=     1 NCelOv=     1 NCel=       1 NClECP=     1 NCelD=      1
         NCelK=      1 NCelE2=     1 NClLst=     1 CellRange=     0.0.
 One-electron integrals computed using PRISM.
 One-electron integral symmetry used in STVInt
 NBasis=   486 RedAO= T EigKep=  3.69D-04  NBF=   486
 NBsUse=   486 1.00D-06 EigRej= -1.00D+00 NBFU=   486
 Precomputing XC quadrature grid using
 IXCGrd= 4 IRadAn=           5 IRanWt=          -1 IRanGd=           0 AccXCQ= 0.00D+00.
 Generated NRdTot=       0 NPtTot=           0 NUsed=           0 NTot=          32
 NSgBfM=   476   476   476   476   476 MxSgAt=    48 MxSgA2=    48.
 Leave Link  302 at Fri Jun  5 16:57:08 2026, MaxMem=  2516582400 cpu:               4.3 elap:               0.4
 (Enter /apl/gaussian/16c02/g16/l303.exe)
 DipDrv:  MaxL=1.
 Leave Link  303 at Fri Jun  5 16:57:08 2026, MaxMem=  2516582400 cpu:               0.1 elap:               0.1
 (Enter /apl/gaussian/16c02/g16/l401.exe)
 ExpMin= 1.61D-01 ExpMax= 4.17D+03 ExpMxC= 6.27D+02 IAcc=3 IRadAn=         5 AccDes= 0.00D+00
 Harris functional with IExCor=  402 and IRadAn=       5 diagonalized for initial guess.
 HarFok:  IExCor=  402 AccDes= 0.00D+00 IRadAn=         5 IDoV= 1 UseB2=F ITyADJ=14
 ICtDFT=  3500011 ScaDFX=  1.000000  1.000000  1.000000  1.000000
 FoFCou: FMM=F IPFlag=           0 FMFlag=      100000 FMFlg1=           0
         NFxFlg=           0 DoJE=T BraDBF=F KetDBF=T FulRan=T
         wScrn=  0.000000 ICntrl=       500 IOpCl=  0 I1Cent=   200000004 NGrid=           0
         NMat0=    1 NMatS0=      1 NMatT0=    0 NMatD0=    1 NMtDS0=    0 NMtDT0=    0
 Petite list used in FoFCou.
 Harris En= -1220.60172389123    
 JPrj=0 DoOrth=F DoCkMO=F.
 Leave Link  401 at Fri Jun  5 16:57:10 2026, MaxMem=  2516582400 cpu:              24.1 elap:               1.7
 (Enter /apl/gaussian/16c02/g16/l502.exe)
 Integral symmetry usage will be decided dynamically.
 Closed shell SCF:
 Using DIIS extrapolation, IDIIS=  1040.
 NGot=  2516582400 LenX=  2516096012 LenY=  2515859330
 Requested convergence on RMS density matrix=1.00D-08 within 128 cycles.
 Requested convergence on MAX density matrix=1.00D-06.
 Requested convergence on             energy=1.00D-06.
 No special actions if energy rises.
 Fock matrices will be formed incrementally for  20 cycles.
 Integral accuracy reduced to 1.0D-05 until final iterations.

 Cycle   1  Pass 0  IDiag  1:
 FoFJK:  IHMeth= 1 ICntrl=       0 DoSepK=F KAlg= 0 I1Cent=           0 FoldK=F
 IRaf= 610000000 NMat=       1 IRICut=       1 DoRegI=T DoRafI=F ISym2E= 0 IDoP0=0 IntGTp=1.
 FoFCou: FMM=F IPFlag=           0 FMFlag=      100000 FMFlg1=           0
         NFxFlg=           0 DoJE=F BraDBF=F KetDBF=F FulRan=T
         wScrn=  0.000000 ICntrl=         0 IOpCl=  0 I1Cent=           0 NGrid=           0
         NMat0=    1 NMatS0=      1 NMatT0=    0 NMatD0=    1 NMtDS0=    0 NMtDT0=    0
 Symmetry not used in FoFCou.
 E= -1220.03026358206    
 DIIS: error= 2.78D-02 at cycle   1 NSaved=   1.
 NSaved= 1 IEnMin= 1 EnMin= -1220.03026358206     IErMin= 1 ErrMin= 2.78D-02
 ErrMax= 2.78D-02  0.00D+00 EMaxC= 1.00D-01 BMatC= 5.85D-01 BMatP= 5.85D-01
 IDIUse=3 WtCom= 7.22D-01 WtEn= 2.78D-01
 Coeff-Com:  0.100D+01
 Coeff-En:   0.100D+01
 Coeff:      0.100D+01
 Gap=     0.172 Goal=   None    Shift=    0.000
 GapD=    0.172 DampG=1.000 DampE=0.500 DampFc=0.5000 IDamp=-1.
 Damping current iteration by 5.00D-01
 RMSDP=4.31D-03 MaxDP=1.67D-01              OVMax= 2.75D-01

 Cycle   2  Pass 0  IDiag  1:
 RMSU=  2.11D-03    CP:  9.71D-01
 E= -1220.24644417937     Delta-E=       -0.216180597302 Rises=F Damp=T
 DIIS: error= 1.01D-02 at cycle   2 NSaved=   2.
 NSaved= 2 IEnMin= 2 EnMin= -1220.24644417937     IErMin= 2 ErrMin= 1.01D-02
 ErrMax= 1.01D-02  0.00D+00 EMaxC= 1.00D-01 BMatC= 8.52D-02 BMatP= 5.85D-01
 IDIUse=3 WtCom= 8.99D-01 WtEn= 1.01D-01
 Coeff-Com:  0.148D+00 0.852D+00
 Coeff-En:   0.249D+00 0.751D+00
 Coeff:      0.159D+00 0.841D+00
 Gap=     0.192 Goal=   None    Shift=    0.000
 RMSDP=1.61D-03 MaxDP=1.30D-01 DE=-2.16D-01 OVMax= 3.12D-01

 Cycle   3  Pass 0  IDiag  1:
 RMSU=  1.49D-03    CP:  9.53D-01  7.46D-01
 E= -1220.52693658066     Delta-E=       -0.280492401299 Rises=F Damp=F
 DIIS: error= 1.40D-02 at cycle   3 NSaved=   3.
 NSaved= 3 IEnMin= 3 EnMin= -1220.52693658066     IErMin= 2 ErrMin= 1.01D-02
 ErrMax= 1.40D-02  0.00D+00 EMaxC= 1.00D-01 BMatC= 1.17D-01 BMatP= 8.52D-02
 IDIUse=2 WtCom= 0.00D+00 WtEn= 1.00D+00
 Coeff-En:   0.000D+00 0.000D+00 0.100D+01
 Coeff:      0.000D+00 0.000D+00 0.100D+01
 Gap=     0.207 Goal=   None    Shift=    0.000
 RMSDP=2.65D-03 MaxDP=1.90D-01 DE=-2.80D-01 OVMax= 2.55D-01

 Cycle   4  Pass 0  IDiag  1:
 RMSU=  1.32D-03    CP:  9.59D-01  1.34D+00 -2.92D-01
 E= -1219.94004863117     Delta-E=        0.586887949500 Rises=F Damp=F
 DIIS: error= 3.43D-02 at cycle   4 NSaved=   4.
 NSaved= 4 IEnMin= 3 EnMin= -1220.52693658066     IErMin= 2 ErrMin= 1.01D-02
 ErrMax= 3.43D-02  0.00D+00 EMaxC= 1.00D-01 BMatC= 6.99D-01 BMatP= 8.52D-02
 IDIUse=2 WtCom= 0.00D+00 WtEn= 1.00D+00
 Coeff-En:   0.000D+00 0.000D+00 0.795D+00 0.205D+00
 Coeff:      0.000D+00 0.000D+00 0.795D+00 0.205D+00
 Gap=     0.150 Goal=   None    Shift=    0.000
 RMSDP=1.41D-03 MaxDP=1.07D-01 DE= 5.87D-01 OVMax= 1.87D-01

 Cycle   5  Pass 0  IDiag  1:
 RMSU=  2.87D-04    CP:  9.58D-01  9.89D-01  3.45D-01  4.96D-01
 E= -1220.59658167585     Delta-E=       -0.656533044682 Rises=F Damp=F
 DIIS: error= 9.68D-03 at cycle   5 NSaved=   5.
 NSaved= 5 IEnMin= 5 EnMin= -1220.59658167585     IErMin= 5 ErrMin= 9.68D-03
 ErrMax= 9.68D-03  0.00D+00 EMaxC= 1.00D-01 BMatC= 5.20D-02 BMatP= 8.52D-02
 IDIUse=3 WtCom= 9.03D-01 WtEn= 9.68D-02
 Coeff-Com:  0.538D-02 0.459D-02 0.341D+00-0.543D-01 0.704D+00
 Coeff-En:   0.000D+00 0.000D+00 0.350D+00 0.000D+00 0.650D+00
 Coeff:      0.486D-02 0.414D-02 0.342D+00-0.491D-01 0.699D+00
 Gap=     0.158 Goal=   None    Shift=    0.000
 RMSDP=5.43D-04 MaxDP=3.55D-02 DE=-6.57D-01 OVMax= 6.80D-02

 Cycle   6  Pass 0  IDiag  1:
 RMSU=  1.06D-04    CP:  9.56D-01  8.80D-01  6.08D-01  2.96D-01  6.88D-01
 E= -1220.64991594757     Delta-E=       -0.053334271727 Rises=F Damp=F
 DIIS: error= 9.34D-04 at cycle   6 NSaved=   6.
 NSaved= 6 IEnMin= 6 EnMin= -1220.64991594757     IErMin= 6 ErrMin= 9.34D-04
 ErrMax= 9.34D-04  0.00D+00 EMaxC= 1.00D-01 BMatC= 6.92D-04 BMatP= 5.20D-02
 IDIUse=3 WtCom= 9.91D-01 WtEn= 9.34D-03
 Coeff-Com: -0.242D-02 0.104D-01 0.152D+00-0.643D-01 0.449D+00 0.455D+00
 Coeff-En:   0.000D+00 0.000D+00 0.000D+00 0.000D+00 0.000D+00 0.100D+01
 Coeff:     -0.240D-02 0.103D-01 0.151D+00-0.637D-01 0.445D+00 0.460D+00
 Gap=     0.155 Goal=   None    Shift=    0.000
 RMSDP=6.55D-05 MaxDP=2.97D-03 DE=-5.33D-02 OVMax= 7.47D-03

 Cycle   7  Pass 0  IDiag  1:
 RMSU=  2.81D-05    CP:  9.56D-01  8.84D-01  6.05D-01  2.95D-01  7.77D-01
                    CP:  5.08D-01
 E= -1220.65061113219     Delta-E=       -0.000695184612 Rises=F Damp=F
 DIIS: error= 2.77D-04 at cycle   7 NSaved=   7.
 NSaved= 7 IEnMin= 7 EnMin= -1220.65061113219     IErMin= 7 ErrMin= 2.77D-04
 ErrMax= 2.77D-04  0.00D+00 EMaxC= 1.00D-01 BMatC= 3.07D-05 BMatP= 6.92D-04
 IDIUse=3 WtCom= 9.97D-01 WtEn= 2.77D-03
 Coeff-Com: -0.108D-02 0.422D-02 0.601D-01-0.286D-01 0.185D+00 0.238D+00
 Coeff-Com:  0.543D+00
 Coeff-En:   0.000D+00 0.000D+00 0.000D+00 0.000D+00 0.000D+00 0.000D+00
 Coeff-En:   0.100D+01
 Coeff:     -0.107D-02 0.421D-02 0.600D-01-0.286D-01 0.184D+00 0.237D+00
 Coeff:      0.544D+00
 Gap=     0.155 Goal=   None    Shift=    0.000
 RMSDP=1.76D-05 MaxDP=1.16D-03 DE=-6.95D-04 OVMax= 2.43D-03

 Cycle   8  Pass 0  IDiag  1:
 RMSU=  1.13D-05    CP:  9.56D-01  8.82D-01  6.05D-01  2.95D-01  7.81D-01
                    CP:  5.35D-01  5.55D-01
 E= -1220.65063469473     Delta-E=       -0.000023562539 Rises=F Damp=F
 DIIS: error= 1.35D-04 at cycle   8 NSaved=   8.
 NSaved= 8 IEnMin= 8 EnMin= -1220.65063469473     IErMin= 8 ErrMin= 1.35D-04
 ErrMax= 1.35D-04  0.00D+00 EMaxC= 1.00D-01 BMatC= 7.61D-06 BMatP= 3.07D-05
 IDIUse=3 WtCom= 9.99D-01 WtEn= 1.35D-03
 Coeff-Com:  0.177D-03-0.826D-03 0.803D-02-0.365D-02 0.217D-01 0.547D-01
 Coeff-Com:  0.360D+00 0.560D+00
 Coeff-En:   0.000D+00 0.000D+00 0.000D+00 0.000D+00 0.000D+00 0.000D+00
 Coeff-En:   0.193D+00 0.807D+00
 Coeff:      0.177D-03-0.825D-03 0.802D-02-0.364D-02 0.217D-01 0.547D-01
 Coeff:      0.360D+00 0.560D+00
 Gap=     0.155 Goal=   None    Shift=    0.000
 RMSDP=7.38D-06 MaxDP=4.89D-04 DE=-2.36D-05 OVMax= 8.21D-04

 Initial convergence to 1.0D-05 achieved.  Increase integral accuracy.
 Cycle   9  Pass 1  IDiag  1:
 E= -1220.65066635575     Delta-E=       -0.000031661024 Rises=F Damp=F
 DIIS: error= 8.44D-05 at cycle   1 NSaved=   1.
 NSaved= 1 IEnMin= 1 EnMin= -1220.65066635575     IErMin= 1 ErrMin= 8.44D-05
 ErrMax= 8.44D-05  0.00D+00 EMaxC= 1.00D-01 BMatC= 2.71D-06 BMatP= 2.71D-06
 IDIUse=1 WtCom= 1.00D+00 WtEn= 0.00D+00
 Coeff-Com:  0.100D+01
 Coeff:      0.100D+01
 Gap=     0.155 Goal=   None    Shift=    0.000
 RMSDP=7.38D-06 MaxDP=4.89D-04 DE=-3.17D-05 OVMax= 6.18D-04

 Cycle  10  Pass 1  IDiag  1:
 RMSU=  5.31D-05    CP:  1.00D+00
 E= -1220.65066664655     Delta-E=       -0.000000290801 Rises=F Damp=F
 DIIS: error= 7.64D-05 at cycle   2 NSaved=   2.
 NSaved= 2 IEnMin= 2 EnMin= -1220.65066664655     IErMin= 2 ErrMin= 7.64D-05
 ErrMax= 7.64D-05  0.00D+00 EMaxC= 1.00D-01 BMatC= 2.25D-06 BMatP= 2.71D-06
 IDIUse=1 WtCom= 1.00D+00 WtEn= 0.00D+00
 Coeff-Com:  0.468D+00 0.532D+00
 Coeff:      0.468D+00 0.532D+00
 Gap=     0.155 Goal=   None    Shift=    0.000
 RMSDP=5.55D-06 MaxDP=3.43D-04 DE=-2.91D-07 OVMax= 7.14D-04

 Cycle  11  Pass 1  IDiag  1:
 RMSU=  5.55D-06    CP:  1.00D+00  9.96D-01
 E= -1220.65066796250     Delta-E=       -0.000001315945 Rises=F Damp=F
 DIIS: error= 5.76D-05 at cycle   3 NSaved=   3.
 NSaved= 3 IEnMin= 3 EnMin= -1220.65066796250     IErMin= 3 ErrMin= 5.76D-05
 ErrMax= 5.76D-05  0.00D+00 EMaxC= 1.00D-01 BMatC= 9.85D-07 BMatP= 2.25D-06
 IDIUse=1 WtCom= 1.00D+00 WtEn= 0.00D+00
 Coeff-Com:  0.231D-01 0.394D+00 0.583D+00
 Coeff:      0.231D-01 0.394D+00 0.583D+00
 Gap=     0.155 Goal=   None    Shift=    0.000
 RMSDP=2.60D-06 MaxDP=1.72D-04 DE=-1.32D-06 OVMax= 3.60D-04

 Cycle  12  Pass 1  IDiag  1:
 RMSU=  9.59D-07    CP:  1.00D+00  1.01D+00  5.74D-01
 E= -1220.65066893343     Delta-E=       -0.000000970932 Rises=F Damp=F
 DIIS: error= 9.32D-06 at cycle   4 NSaved=   4.
 NSaved= 4 IEnMin= 4 EnMin= -1220.65066893343     IErMin= 4 ErrMin= 9.32D-06
 ErrMax= 9.32D-06  0.00D+00 EMaxC= 1.00D-01 BMatC= 6.77D-08 BMatP= 9.85D-07
 IDIUse=1 WtCom= 1.00D+00 WtEn= 0.00D+00
 Coeff-Com: -0.261D-02 0.235D+00 0.378D+00 0.390D+00
 Coeff:     -0.261D-02 0.235D+00 0.378D+00 0.390D+00
 Gap=     0.155 Goal=   None    Shift=    0.000
 RMSDP=6.23D-07 MaxDP=3.70D-05 DE=-9.71D-07 OVMax= 6.06D-05

 Cycle  13  Pass 1  IDiag  1:
 RMSU=  1.91D-07    CP:  1.00D+00  1.01D+00  6.02D-01  4.03D-01
 E= -1220.65066899951     Delta-E=       -0.000000066082 Rises=F Damp=F
 DIIS: error= 1.58D-06 at cycle   5 NSaved=   5.
 NSaved= 5 IEnMin= 5 EnMin= -1220.65066899951     IErMin= 5 ErrMin= 1.58D-06
 ErrMax= 1.58D-06  0.00D+00 EMaxC= 1.00D-01 BMatC= 1.67D-09 BMatP= 6.77D-08
 IDIUse=1 WtCom= 1.00D+00 WtEn= 0.00D+00
 Coeff-Com: -0.231D-02 0.135D+00 0.220D+00 0.243D+00 0.403D+00
 Coeff:     -0.231D-02 0.135D+00 0.220D+00 0.243D+00 0.403D+00
 Gap=     0.155 Goal=   None    Shift=    0.000
 RMSDP=1.11D-07 MaxDP=4.12D-06 DE=-6.61D-08 OVMax= 9.42D-06

 Cycle  14  Pass 1  IDiag  1:
 RMSU=  6.37D-08    CP:  1.00D+00  1.01D+00  6.03D-01  4.15D-01  5.32D-01
 E= -1220.65066900116     Delta-E=       -0.000000001648 Rises=F Damp=F
 DIIS: error= 3.26D-07 at cycle   6 NSaved=   6.
 NSaved= 6 IEnMin= 6 EnMin= -1220.65066900116     IErMin= 6 ErrMin= 3.26D-07
 ErrMax= 3.26D-07  0.00D+00 EMaxC= 1.00D-01 BMatC= 8.65D-11 BMatP= 1.67D-09
 IDIUse=1 WtCom= 1.00D+00 WtEn= 0.00D+00
 Coeff-Com: -0.121D-02 0.660D-01 0.108D+00 0.121D+00 0.242D+00 0.465D+00
 Coeff:     -0.121D-02 0.660D-01 0.108D+00 0.121D+00 0.242D+00 0.465D+00
 Gap=     0.155 Goal=   None    Shift=    0.000
 RMSDP=2.77D-08 MaxDP=1.60D-06 DE=-1.65D-09 OVMax= 2.82D-06

 Cycle  15  Pass 1  IDiag  1:
 RMSU=  2.11D-08    CP:  1.00D+00  1.01D+00  6.03D-01  4.15D-01  5.64D-01
                    CP:  7.38D-01
 E= -1220.65066900121     Delta-E=       -0.000000000050 Rises=F Damp=F
 DIIS: error= 1.14D-07 at cycle   7 NSaved=   7.
 NSaved= 7 IEnMin= 7 EnMin= -1220.65066900121     IErMin= 7 ErrMin= 1.14D-07
 ErrMax= 1.14D-07  0.00D+00 EMaxC= 1.00D-01 BMatC= 1.13D-11 BMatP= 8.65D-11
 IDIUse=1 WtCom= 1.00D+00 WtEn= 0.00D+00
 Coeff-Com: -0.404D-03 0.202D-01 0.332D-01 0.378D-01 0.858D-01 0.294D+00
 Coeff-Com:  0.529D+00
 Coeff:     -0.404D-03 0.202D-01 0.332D-01 0.378D-01 0.858D-01 0.294D+00
 Coeff:      0.529D+00
 Gap=     0.155 Goal=   None    Shift=    0.000
 RMSDP=1.00D-08 MaxDP=5.16D-07 DE=-5.00D-11 OVMax= 1.12D-06

 Cycle  16  Pass 1  IDiag  1:
 RMSU=  7.39D-09    CP:  1.00D+00  1.01D+00  6.03D-01  4.15D-01  5.67D-01
                    CP:  7.93D-01  7.32D-01
 E= -1220.65066900125     Delta-E=       -0.000000000041 Rises=F Damp=F
 DIIS: error= 3.66D-08 at cycle   8 NSaved=   8.
 NSaved= 8 IEnMin= 8 EnMin= -1220.65066900125     IErMin= 8 ErrMin= 3.66D-08
 ErrMax= 3.66D-08  0.00D+00 EMaxC= 1.00D-01 BMatC= 1.39D-12 BMatP= 1.13D-11
 IDIUse=1 WtCom= 1.00D+00 WtEn= 0.00D+00
 Coeff-Com: -0.305D-04 0.698D-03 0.136D-02 0.179D-02 0.777D-02 0.987D-01
 Coeff-Com:  0.305D+00 0.585D+00
 Coeff:     -0.305D-04 0.698D-03 0.136D-02 0.179D-02 0.777D-02 0.987D-01
 Coeff:      0.305D+00 0.585D+00
 Gap=     0.155 Goal=   None    Shift=    0.000
 RMSDP=3.86D-09 MaxDP=1.35D-07 DE=-4.09D-11 OVMax= 5.05D-07

 SCF Done:  E(RB3LYP) =  -1220.65066900     A.U. after   16 cycles
            NFock= 16  Conv=0.39D-08     -V/T= 2.0096
 KE= 1.209099177115D+03 PE=-7.826122028950D+03 EE= 2.897981727965D+03
 Leave Link  502 at Fri Jun  5 16:57:45 2026, MaxMem=  2516582400 cpu:             500.6 elap:              34.9
 (Enter /apl/gaussian/16c02/g16/l601.exe)
 Copying SCF densities to generalized density rwf, IOpCl= 0 IROHF=0.

 **********************************************************************

            Population analysis using the SCF Density.

 **********************************************************************

 Orbital symmetries:
       Occupied  (A) (A) (A) (A) (A) (A) (A) (A) (A) (A) (A) (A)
                 (A) (A) (A) (A) (A) (A) (A) (A) (A) (A) (A) (A)
                 (A) (A) (A) (A) (A) (A) (A) (A) (A) (A) (A) (A)
                 (A) (A) (A) (A) (A) (A) (A) (A) (A) (A) (A) (A)
                 (A) (A) (A) (A) (A) (A) (A) (A) (A) (A) (A) (A)
                 (A) (A) (A) (A) (A) (A) (A) (A) (A) (A) (A) (A)
                 (A) (A) (A) (A) (A) (A) (A) (A) (A) (A) (A) (A)
                 (A) (A) (A) (A) (A) (A) (A) (A) (A) (A) (A) (A)
                 (A) (A) (A) (A) (A)
       Virtual   (A) (A) (A) (A) (A) (A) (A) (A) (A) (A) (A) (A)
                 (A) (A) (A) (A) (A) (A) (A) (A) (A) (A) (A) (A)
                 (A) (A) (A) (A) (A) (A) (A) (A) (A) (A) (A) (A)
                 (A) (A) (A) (A) (A) (A) (A) (A) (A) (A) (A) (A)
                 (A) (A) (A) (A) (A) (A) (A) (A) (A) (A) (A) (A)
                 (A) (A) (A) (A) (A) (A) (A) (A) (A) (A) (A) (A)
                 (A) (A) (A) (A) (A) (A) (A) (A) (A) (A) (A) (A)
                 (A) (A) (A) (A) (A) (A) (A) (A) (A) (A) (A) (A)
                 (A) (A) (A) (A) (A) (A) (A) (A) (A) (A) (A) (A)
                 (A) (A) (A) (A) (A) (A) (A) (A) (A) (A) (A) (A)
                 (A) (A) (A) (A) (A) (A) (A) (A) (A) (A) (A) (A)
                 (A) (A) (A) (A) (A) (A) (A) (A) (A) (A) (A) (A)
                 (A) (A) (A) (A) (A) (A) (A) (A) (A) (A) (A) (A)
                 (A) (A) (A) (A) (A) (A) (A) (A) (A) (A) (A) (A)
                 (A) (A) (A) (A) (A) (A) (A) (A) (A) (A) (A) (A)
                 (A) (A) (A) (A) (A) (A) (A) (A) (A) (A) (A) (A)
                 (A) (A) (A) (A) (A) (A) (A) (A) (A) (A) (A) (A)
                 (A) (A) (A) (A) (A) (A) (A) (A) (A) (A) (A) (A)
                 (A) (A) (A) (A) (A) (A) (A) (A) (A) (A) (A) (A)
                 (A) (A) (A) (A) (A) (A) (A) (A) (A) (A) (A) (A)
                 (A) (A) (A) (A) (A) (A) (A) (A) (A) (A) (A) (A)
                 (A) (A) (A) (A) (A) (A) (A) (A) (A) (A) (A) (A)
                 (A) (A) (A) (A) (A) (A) (A) (A) (A) (A) (A) (A)
                 (A) (A) (A) (A) (A) (A) (A) (A) (A) (A) (A) (A)
                 (A) (A) (A) (A) (A) (A) (A) (A) (A) (A) (A) (A)
                 (A) (A) (A) (A) (A) (A) (A) (A) (A) (A) (A) (A)
                 (A) (A) (A) (A) (A) (A) (A) (A) (A) (A) (A) (A)
                 (A) (A) (A) (A) (A) (A) (A) (A) (A) (A) (A) (A)
                 (A) (A) (A) (A) (A) (A) (A) (A) (A) (A) (A) (A)
                 (A) (A) (A) (A) (A) (A) (A) (A) (A) (A) (A) (A)
                 (A) (A) (A) (A) (A) (A) (A) (A) (A) (A) (A) (A)
                 (A) (A) (A) (A) (A) (A) (A) (A) (A) (A) (A) (A)
                 (A)
 The electronic state is 1-A.
 Alpha  occ. eigenvalues --  -14.40219 -14.39256 -14.31414 -14.31287 -10.26319
 Alpha  occ. eigenvalues --  -10.25943 -10.25315 -10.22389 -10.22343 -10.22069
 Alpha  occ. eigenvalues --  -10.21686 -10.21275 -10.20975 -10.20795 -10.20609
 Alpha  occ. eigenvalues --  -10.20463 -10.20283 -10.19908 -10.19656 -10.19651
 Alpha  occ. eigenvalues --  -10.19613 -10.19578 -10.19560 -10.19497 -10.19075
 Alpha  occ. eigenvalues --  -10.18866 -10.18696 -10.18549 -10.18486 -10.18385
 Alpha  occ. eigenvalues --   -1.02528  -1.02491  -0.90919  -0.88084  -0.86679
 Alpha  occ. eigenvalues --   -0.86308  -0.84269  -0.84029  -0.78420  -0.77570
 Alpha  occ. eigenvalues --   -0.76467  -0.74982  -0.74248  -0.73826  -0.72802
 Alpha  occ. eigenvalues --   -0.72379  -0.66367  -0.64566  -0.63558  -0.62978
 Alpha  occ. eigenvalues --   -0.61358  -0.61046  -0.59768  -0.59098  -0.58814
 Alpha  occ. eigenvalues --   -0.57657  -0.55137  -0.54161  -0.52272  -0.51186
 Alpha  occ. eigenvalues --   -0.50108  -0.49886  -0.47757  -0.47412  -0.46437
[...]
 -0.00000119,0.00000321,-0.00001290,-0.00000465,-0.00000471,0.00000463,
 0.00000911,-0.00000315,-0.00002935,0.00001340,-0.00005847,-0.00000622,
 -0.00000173,0.00008651,0.00007644,0.00011182,-0.00003941,0.00001551,-0
 .00239529,0.00636694,0.00179851,0.00035417,-0.00022311,-0.00030177,-0.
 00005255,0.00434223,0.00211233,-0.00229248,0.00137205,0.00567430,-0.00
 029898,-0.00316122,-0.00083748,-0.00080414,0.00009247,-0.00065823,0.00
 010095,-0.00030908,-0.00021590,-0.00000732,0.00003510,0.00000511,0.000
 00673,0.00000514,-0.00000927,-0.00000988,-0.00001216,-0.00000071,0.000
 00564,0.00009749,0.00005932,-0.00015032,0.00004768,0.00010073,0.000339
 84,-0.00014066,0.00020063,-0.05978052,-0.10098386,0.10808067,-0.002161
 12,0.00098334,0.00494778,0.00003020,-0.00000440,0.00000041,-0.00001210
 ,0.00003027,0.00001844,0.00000680,-0.00000490,-0.00000256,0.00000060,-
 0.00000095,-0.00000198,-0.00000333,0.00000133,-0.00000149,0.00000026,-
 0.00000227,-0.00000260,-0.00000214,-0.00000034,0.00000656,-0.00000041,
 -0.00000361,0.00000221,-0.00002389,-0.00001113,0.00002288,0.00016706,-
 0.00074689,-0.00029958,-0.00024964,0.00031245,0.00032641,-0.00000792,-
 0.00001163,-0.00000055,0.00000155,0.00000097,-0.00000015,0.00000558,-0
 .00000761,-0.00000336,0.00000127,-0.00000873,-0.00000539,-0.00000009,-
 0.00000853,-0.00000263,0.06610810,0.09535392,0.00001161,-0.00001615,0.
 00001865,-0.00000788,-0.00001934,-0.00000893,-0.00001889,0.00001750,-0
 .00002120,0.00004236,-0.00002168,0.00000071,-0.00003650,0.00007188,-0.
 00005615,0.00000131,-0.00002682,0.00000713,-0.00000591,-0.00002316,-0.
 00000900,-0.00000092,0.00000365,-0.00000831,0.00000166,-0.00000197,0.0
 0000368,0.00000060,-0.00000550,-0.00001241,0.00000130,-0.00001747,0.00
 000500,-0.00003915,-0.00003330,0.00003112,-0.00004016,-0.00015028,0.00
 016939,-0.00199873,0.00194478,0.00224386,-0.00055940,-0.00040966,0.000
 14022,-0.00419780,0.00196011,-0.00194207,0.01207339,0.01209420,-0.0162
 6996,0.00139659,-0.00032178,-0.00157008,0.00117567,0.00028075,0.000235
 86,-0.00055184,-0.00052012,0.00044513,0.00005963,0.00000257,0.00004768
 ,-0.00000875,0.00002743,-0.00005744,0.00000545,-0.00001133,0.00001662,
 -0.00003242,-0.00002007,0.00008331,0.00028333,-0.00001967,0.00023179,0
 .00020946,-0.00014914,0.00043917,0.09528465,0.10738714,-0.23301241,-0.
 00241641,-0.00156478,0.00624572,0.00000129,-0.00000539,-0.00000244,-0.
 00000136,0.00002008,0.00001772,0.00000299,-0.00000194,0.00000076,-0.00
 000252,-0.00000073,-0.00000113,-0.00000466,0.00000062,-0.00000096,0.00
 000036,-0.00000095,-0.00000084,-0.00000010,0.00000082,0.00000261,-0.00
 000015,0.00000017,-0.00000010,-0.00001113,-0.00000871,0.00000436,0.000
 16439,-0.00030118,-0.00012863,0.00056814,0.00075945,-0.00080380,-0.000
 00808,0.00000939,-0.00001229,0.00002127,0.00000433,0.00000246,0.000011
 95,-0.00000308,0.00000351,0.00003720,-0.00001133,0.00002362,0.00016961
 ,-0.00002583,0.00000744,-0.10227595,-0.11921545,0.24350584,-0.00007783
 ,-0.00001580,-0.00005488,0.00002315,0.00011686,-0.00000376,-0.00002896
 ,-0.00004619,-0.00004870,-0.00035129,0.00027099,0.00034587,-0.00027096
 ,0.00006640,0.00027025,-0.00002755,-0.00002539,-0.00009494,0.00007370,
 0.00006835,0.00006448,-0.00002266,-0.00007089,-0.00000117,-0.00003982,
 0.00004704,-0.00001520,0.00002649,0.00005493,0.00000972,0.00003236,-0.
 00002603,0.00002867,0.00015563,-0.00015169,-0.00010024,0.00136331,0.00
 119986,0.00035796,0.00971133,-0.00359193,0.01254332,-0.00075851,-0.002
 28962,0.00197674,-0.00050829,-0.00040943,0.00065519,-0.00428502,-0.003
 36388,0.00073443,0.00021801,0.00063372,-0.00151380,-0.00006064,-0.0000
 7760,0.00016143,-0.00000252,-0.00004526,0.00005183,0.00001629,0.000024
 53,-0.00003179,-0.00003442,0.00000462,-0.00001673,-0.00003886,-0.00001
 592,0.00000658,0.00000495,-0.00002722,0.00005760,-0.00002335,0.0001148
 6,-0.00015938,-0.00055436,-0.00017189,0.00014499,-0.01212840,0.0071351
 9,-0.02581399,-0.14094769,0.02594989,-0.12938301,-0.00011078,0.0001633
 6,0.00018975,0.00002661,-0.00014825,0.00004423,0.00000006,-0.00001301,
 -0.00000567,0.00000871,-0.00000933,0.00000258,-0.00003398,0.00000453,0
 .00000012,0.00000530,0.00000307,0.00000310,-0.00000049,0.00000837,-0.0
 0000091,0.00000018,0.00001152,-0.00000267,-0.00002291,0.00002022,-0.00
 001512,0.00058207,-0.00029753,0.00065711,-0.00001756,0.00027983,-0.000
 00535,-0.00000330,-0.00000835,0.00000732,-0.00000941,-0.00000353,0.000
 00055,-0.00001009,-0.00000512,0.00000135,0.00000115,0.00000377,-0.0000
 0531,0.00000669,-0.00002126,0.00001400,0.00084321,0.00101870,0.0006905
 2,0.14724481,0.00000493,-0.00006653,-0.00001220,0.00001465,-0.00001014
 ,0.00001356,0.00009891,-0.00010613,0.00014040,0.00011076,0.00030196,-0
 .00001159,-0.00044912,0.00079589,-0.00045503,0.00019194,-0.00003699,0.
 00017584,0.00003139,-0.00021011,0.00007684,-0.00004723,0.00002281,-0.0
 0003228,0.00004474,0.00000347,0.00000395,-0.00002719,-0.00005862,-0.00
 000874,0.00000953,0.00005301,-0.00004363,-0.00061561,-0.00047229,0.000
 12527,0.00262840,-0.00249081,-0.00254983,0.00874557,0.00119883,0.01195
 156,-0.00282914,0.00294976,0.00349188,-0.00050288,-0.00032663,0.000055
 08,-0.00323430,0.00575429,0.00221086,-0.00010822,0.00057578,-0.0002759
 4,-0.00002513,-0.00003179,0.00004474,-0.00000917,0.00001669,0.00001478
 ,-0.00000166,0.00000036,-0.00000693,-0.00000041,-0.00000490,0.00000389
 ,-0.00000251,0.00000798,-0.00000358,-0.00001533,0.00000171,0.00002031,
 0.00000747,-0.00000524,-0.00006071,-0.00014888,-0.00028075,-0.00007790
 ,-0.00417048,0.00479572,-0.00763807,0.02478898,-0.05277442,0.05553106,
 0.00000951,-0.00004818,-0.00009368,-0.00007388,-0.00006359,0.00003510,
 0.00000564,0.00000287,-0.00001246,-0.00000543,-0.00000067,-0.00000017,
 -0.00001847,0.00002208,-0.00002228,-0.00000199,-0.00000693,0.00001074,
 0.00000216,0.00000208,0.00000165,-0.00000172,0.00000345,0.00000302,0.0
 0001080,0.00001305,0.00002848,0.00037297,0.00032718,0.00075715,0.00028
 787,-0.00084168,-0.00036991,-0.00000309,0.00000154,0.00000378,-0.00000
 121,0.00000095,0.00000064,-0.00000091,-0.00000357,-0.00000057,0.000000
 66,-0.00000071,-0.00000052,-0.00000231,0.00001205,0.00001949,0.0012888
 6,-0.00328114,-0.00167875,-0.02632381,0.04421551,-0.00005219,-0.000002
 44,-0.00006412,0.00006936,0.00009199,-0.00000177,0.00015557,-0.0001738
 5,0.00027978,-0.00004314,0.00009036,0.00013133,0.00057890,0.00055109,-
 0.00036789,0.00024508,0.00002902,0.00014414,-0.00002274,-0.00018624,-0
 .00006004,0.00006228,0.00011865,-0.00001212,0.00009555,-0.00008057,0.0
 0002671,-0.00006872,-0.00010395,-0.00000232,-0.00010878,0.00010465,0.0
 0000638,0.00003844,0.00008041,0.00010140,-0.00037470,-0.00209611,0.000
 85018,-0.01591188,0.00420608,-0.01627615,0.00301413,0.00371706,-0.0014
 6995,0.00068769,-0.00008139,0.00028965,0.00019597,0.00226566,0.0023089
 2,0.00010165,0.00011369,0.00015708,-0.00005932,-0.00004012,-0.00000127
 ,-0.00002194,0.00001440,0.00000065,0.00003508,0.00001950,-0.00002040,-
 0.00003155,0.00001466,-0.00003964,-0.00003401,-0.00002485,0.00003085,0
 .00004205,0.00000633,0.00001885,-0.00005412,-0.00002461,-0.00000996,0.
 00006188,-0.00008528,-0.00003647,0.00131161,-0.00000892,0.00405072,-0.
 12732362,0.05471519,-0.24730826,-0.00035060,-0.00001265,-0.00012436,-0
 .00002119,-0.00017080,0.00008190,-0.00000130,0.00002022,-0.00000431,-0
 .00001866,0.00002083,-0.00000898,-0.00001021,-0.00000257,-0.00000744,-
 0.00000769,0.00000122,-0.00000065,0.00000249,-0.00001169,0.00000217,-0
 .00000067,-0.00001577,-0.00000358,0.00003890,-0.00004927,-0.00001457,-
 0.00083647,0.00037798,-0.00073280,0.00000379,-0.00038948,-0.00016973,0
 .00000254,0.00000075,0.00000481,-0.00000712,-0.00000208,0.00000151,-0.
 00000556,-0.00000174,-0.00000182,-0.00000121,0.00000274,-0.00000560,0.
 00001672,0.00000212,0.00000963,0.00030894,-0.00176827,0.00001157,0.138
 29462,-0.06130765,0.25829931,0.00409558,-0.00018219,-0.00284653,0.0001
 0212,-0.00044949,0.00030938,0.00134755,-0.00344573,-0.00398772,-0.0097
 4379,0.00887882,-0.01104183,-0.00161341,0.00192451,0.00157768,-0.00026
 970,-0.00073410,0.00019316,-0.00002135,0.00021735,-0.00019880,-0.00002
 125,-0.00012710,-0.00000791,-0.00005875,0.00006711,-0.00001489,0.00006
 983,0.00001333,0.00000503,0.00003272,-0.00004951,-0.00002245,-0.000005
 43,-0.00010969,-0.00003525,0.00007856,-0.00024960,0.00034610,0.0000289
 3,0.00132390,0.00061228,-0.00005895,0.00055777,0.00008238,-0.00001877,
 -0.00010413,-0.00006086,-0.00018134,-0.00009659,-0.00001332,-0.0000009
 0,0.00001274,-0.00001798,0.00001047,-0.00001651,0.00000686,-0.00000843
 ,0.00000048,-0.00000164,-0.00000306,-0.00000326,0.00000248,0.00000341,
 -0.00000227,0.00000368,0.00000396,0.00000215,-0.00000225,-0.00000266,0
 .00000121,-0.00000443,-0.00000427,-0.00000304,0.00000803,0.00001579,-0
 .00000278,-0.00000508,0.00020770,0.00003658,0.00009986,-0.00031707,0.0
 0072480,0.00022031,-0.17536325,0.07510439,-0.13135632,0.00272927,-0.00
 073053,-0.00019374,0.00009703,-0.00011894,-0.00005563,-0.00055416,0.00
 011818,0.00063917,-0.00028728,0.00051243,-0.00082973,0.00000436,0.0000
 0442,-0.00000508,-0.00000091,0.00000024,0.00000805,0.00000075,0.000004
 68,0.00000386,-0.00000207,0.00000463,0.00001486,0.00003938,-0.00010161
 ,0.00002242,-0.00000047,0.00000800,0.00000305,-0.00000150,0.00000063,0
 .00000049,0.00000145,0.00000086,-0.00000029,0.00000210,0.00000033,0.00
 000057,0.00000053,-0.00000079,0.00000205,-0.00000656,0.00000781,-0.000
 00211,-0.00001350,-0.00000826,-0.00000059,0.00002746,-0.00003785,-0.00
 000905,0.18089435,-0.00100214,-0.00567112,-0.00041655,-0.00054442,-0.0
 0079031,-0.00045973,-0.00244734,-0.00225963,-0.00199623,-0.01288598,0.
 01200239,-0.01201305,-0.00018235,0.00102666,-0.00028633,0.00021839,0.0
 0016668,0.00007712,0.00010675,0.00002674,-0.00000698,-0.00001745,-0.00
 001081,-0.00000352,0.00001668,0.00002259,-0.00000007,-0.00001093,-0.00
 000948,-0.00001440,0.00002403,0.00006804,0.00002762,-0.00012271,-0.000
 29873,0.00004925,0.00005183,-0.00026930,0.00010558,0.00112628,-0.00172
 114,-0.00112603,0.00015568,-0.00048361,0.00002892,0.00020819,0.0001561
 8,-0.00005234,0.00007758,-0.00004680,0.00022191,0.00003669,0.00000819,
 0.00004088,-0.00001165,-0.00003624,-0.00002078,-0.00003794,-0.00000145
 ,0.00000105,0.00002919,0.00001340,-0.00001609,-0.00002551,0.00000969,-
 0.00003148,-0.00002617,-0.00002223,0.00002131,0.00003055,-0.00000545,0
 .00001010,-0.00005104,-0.00000569,0.00000182,-0.00000138,-0.00001940,-
 0.00000969,-0.00039364,-0.00006156,-0.00006388,0.00055796,-0.00055589,
 -0.00047998,0.07531310,-0.10679315,0.07299670,0.02277508,-0.00843930,0
 .02093003,0.00117553,-0.00054343,0.00100218,0.00008861,0.00014082,0.00
 005563,-0.00080054,0.00055300,-0.00062148,0.00000970,0.00000717,0.0000
 0206,0.00000390,0.00000768,0.00000221,0.00000122,0.00001037,-0.0000025
 9,0.00000487,-0.00000766,0.00000436,0.00001504,-0.00006568,0.00002775,
 -0.00003665,0.00000693,-0.00002388,0.00000007,0.00000101,0.00000473,-0
 .00000457,-0.00000030,0.00000118,-0.00000404,0.00000076,0.00000061,-0.
 00000178,0.00000487,-0.00000255,0.00001370,0.00001919,0.00002089,-0.00
 001130,0.00001666,0.00001492,-0.00002698,0.00005087,0.00005085,-0.0832
 2489,0.11269533,-0.00272767,0.00035272,0.00484564,0.00038157,-0.000467
 27,-0.00001528,-0.00411766,-0.00280786,0.00268080,-0.00980543,0.008651
 77,-0.00668398,0.00147567,0.00045324,-0.00211630,0.00033490,0.00036588
 ,0.00012968,0.00010320,-0.00014687,0.00015902,0.00003606,0.00013397,0.
 00000028,0.00014830,-0.00007110,0.00002901,-0.00013026,-0.00012774,-0.
 00002554,-0.00005636,0.00023679,0.00001197,-0.00001830,-0.00062130,0.0
 0013828,0.00014533,-0.00076835,-0.00001429,-0.00069666,-0.00036607,0.0
 0023380,0.00018134,0.00020405,0.00047968,0.00000796,-0.00006249,0.0000
 5218,0.00003938,-0.00007124,-0.00006642,0.00016459,0.00000844,0.000046
 43,-0.00004937,-0.00001017,-0.00000013,-0.00002622,-0.00000715,0.00000
 832,0.00005516,0.00003321,-0.00003022,-0.00005052,0.00002314,-0.000060
 96,-0.00005375,-0.00004267,0.00004670,0.00006560,-0.00000483,0.0000272
 6,-0.00008253,-0.00000693,-0.00002478,-0.00003854,-0.00000871,-0.00001
 285,0.00019212,0.00017446,-0.00002515,0.00014898,0.00029337,-0.0004885
 5,-0.13048906,0.07226098,-0.15813156,-0.00131395,-0.00042825,0.0017912
 7,-0.00013650,-0.00006961,0.00004092,0.00059789,0.00002898,-0.00073849
 ,-0.00077542,0.00058916,-0.00010991,0.00000860,0.00001200,-0.00000172,
 0.00000613,0.00000087,0.00000095,-0.00000037,-0.00000110,-0.00000661,0
 .00002946,-0.00004324,0.00001097,0.00000328,0.00006343,-0.00004948,-0.
 00004678,0.00002005,-0.00002574,0.00000433,-0.00000134,0.00000531,-0.0
 0001101,-0.00000371,0.00000200,-0.00001031,-0.00000039,-0.00000118,-0.
 00000214,0.00000605,-0.00000859,0.00001845,-0.00000059,0.00002596,-0.0
 0000755,-0.00000256,-0.00000915,-0.00002924,-0.00004985,-0.00006455,0.
 14411249,-0.07776936,0.15975741,-0.00987846,-0.01409559,-0.01029397,0.
 00117029,0.00306356,-0.00524382,-0.00014492,0.00056560,0.00025986,0.00
 385113,0.00055915,-0.00307430,0.00026902,0.00028008,-0.00017615,-0.000
 00105,0.00005871,0.00011222,-0.00002595,0.00004340,-0.00001961,0.00001
 431,0.00002683,-0.00000163,0.00003570,-0.00002102,0.00000909,-0.000029
 72,-0.00003772,-0.00000045,-0.00001851,0.00003935,0.00000045,0.0000356
 7,-0.00005927,0.00001941,0.00003605,-0.00003643,0.00000943,-0.00007609
 ,0.00003942,-0.00000087,0.00003724,-0.00000103,0.00000892,-0.00001086,
 -0.00000957,-0.00000153,-0.00001565,0.00000234,-0.00001073,-0.00002591
 ,0.00000869,-0.00001542,0.00001650,-0.00000686,0.00000175,-0.00000655,
 0.00000058,-0.00000391,-0.00000850,-0.00000557,0.00000487,0.00000789,-
 0.00000393,0.00001028,0.00000925,0.00000728,-0.00000733,-0.00001079,0.
 00000146,-0.00000529,0.00000713,-0.00000243,0.00000875,0.00001417,-0.0
 0000011,0.00000368,0.00001267,-0.00001120,0.00000847,0.00000659,0.0000
 2174,-0.00000816,0.00408812,0.00278995,0.00176259,-0.15848799,-0.10068
 885,-0.10499662,-0.00108587,0.00030656,0.00243723,-0.00047706,-0.00074
 622,-0.00064157,-0.00047080,-0.00004334,0.00059851,-0.00000202,0.00000
 207,-0.00000331,-0.00000189,-0.00000580,0.00000030,0.00000130,-0.00000
 546,-0.00000149,0.00000514,0.00000083,-0.00000055,-0.00000283,-0.00000
 230,-0.00000240,0.00000572,-0.00000060,0.00000441,-0.00000179,0.000000
 01,-0.00000044,0.00000258,0.00000079,-0.00000079,0.00000284,-0.0000001
 6,0.00000047,0.00000047,-0.00000170,0.00000195,-0.00000485,0.00000192,
 -0.00000456,-0.00000531,0.00000339,0.00000458,-0.00000181,0.00000217,0
 .00001320,-0.00123444,-0.00016923,0.00241481,0.16239984,0.00964201,0.0
 1195370,0.00812016,0.00196629,-0.00066143,0.00195019,0.00073420,-0.000
 57312,0.00059997,0.00148344,-0.00520320,0.00194789,-0.00124617,0.00035
 165,-0.00109450,0.00006180,-0.00055066,-0.00000876,-0.00014297,-0.0000
 7567,0.00006632,0.00007443,0.00003433,0.00002885,0.00006282,-0.0000567
 9,0.00000937,-0.00006064,-0.00008023,-0.00000215,-0.00004309,0.0000867
 7,-0.00000770,0.00007640,-0.00019756,0.00003309,0.00013069,-0.00001501
 ,0.00008665,-0.00030340,-0.00009253,-0.00002820,0.00002812,0.00001435,
 0.00000070,0.00000921,0.00001588,0.00002197,0.00005043,0.00000212,0.00
 001499,-0.00001091,-0.00002311,0.00000033,-0.00001200,0.00002913,0.000
 00836,0.00002287,-0.00000098,0.00000236,-0.00000440,0.00000150,0.00000
 088,0.00000328,0.00000022,0.00000434,0.00000280,0.00000408,-0.00000236
 ,-0.00000483,0.00000172,0.00000189,0.00002021,0.00000391,-0.00000989,-
 0.00001177,0.00001340,0.00001368,-0.00001333,0.00001957,-0.00000509,0.
 00002261,0.00003668,-0.00002070,-0.02097995,-0.01388024,-0.01836397,-0
 .10018352,-0.15124929,-0.08389795,-0.00029204,0.00085198,-0.00041397,0
 .00056687,0.00049101,0.00045943,-0.00007568,0.00007522,-0.00009143,-0.
 00000536,0.00000620,-0.00000174,0.00000170,-0.00001540,-0.00000241,0.0
 0000117,-0.00001053,0.00000055,0.00001563,-0.00001280,0.00000258,-0.00
 000687,-0.00001572,-0.00001430,0.00001674,-0.00000965,0.00000440,0.000
 00176,-0.00000150,-0.00000154,-0.00000098,-0.00000132,0.00000005,-0.00
 000090,-0.00000074,-0.00000115,0.00000093,-0.00000192,-0.00000118,0.00
 000261,-0.00001724,-0.00001000,0.00001453,-0.00001184,-0.00001424,-0.0
 0001472,-0.00000807,0.00002487,0.00027149,0.00110314,0.00004816,0.1081
 2851,0.15767000,-0.01062304,-0.01297813,-0.00646353,-0.00526054,0.0027
 2835,0.00214482,0.00018841,0.00082725,-0.00024071,-0.00274699,0.001331
 61,0.00467255,-0.00022804,0.00019737,0.00045478,0.00006574,-0.00002550
 ,-0.00009609,0.00004275,-0.00007366,-0.00003015,0.00001921,0.00003487,
 0.00000116,0.00002974,-0.00001949,0.00001130,-0.00002564,-0.00002030,-
 0.00000499,-0.00001081,0.00002394,-0.00000254,0.00000033,-0.00006191,0
 .00001541,0.00007799,-0.00000344,-0.00004652,-0.00005009,-0.00008397,0
 .00001920,-0.00000825,-0.00001621,-0.00004381,0.00000748,0.00000727,-0
 .00000928,0.00002136,-0.00000189,0.00003091,-0.00001355,-0.00003081,0.
 00003186,-0.00000742,0.00004008,-0.00000853,0.00002256,0.00000189,-0.0
 0000035,-0.00000705,-0.00000231,0.00000802,0.00000625,0.00000122,0.000
 00502,0.00000338,0.00000377,-0.00000310,-0.00000395,0.00000100,-0.0000
 0087,0.00000581,0.00000038,-0.00000490,-0.00000710,0.00001118,-0.00001
 920,-0.00003437,0.00000849,0.00000597,0.00001231,-0.00001126,-0.000002
 93,0.00236339,0.00229618,0.00422616,-0.10534340,-0.08365309,-0.1254274
 5,0.00242007,0.00005388,-0.00169046,-0.00075098,-0.00068986,-0.0002586
 6,0.00057030,-0.00012477,-0.00066131,-0.00000072,0.00000260,-0.0000018
 4,-0.00000042,-0.00000326,0.00000119,0.00000054,-0.00000321,0.00000131
 ,0.00000384,-0.00000406,0.00000194,-0.00000164,0.00000923,-0.00000536,
 0.00000120,0.00000080,-0.00000038,0.00000341,-0.00000143,-0.00000476,0
 .00000094,-0.00000108,-0.00000029,-0.00000095,-0.00000036,-0.00000112,
 -0.00000068,0.00000031,-0.00000179,-0.00000481,-0.00000384,-0.00000010
 ,0.00001697,-0.00001859,-0.00001762,-0.00001247,-0.00000777,0.00000118
 ,0.00243927,-0.00028268,-0.00181238,0.11681967,0.09054120,0.12522822\\
 0.00000575,-0.00000191,0.00000426,-0.00000097,-0.00000615,0.00000029,-
 0.00000485,0.00000462,-0.00000332,0.00000233,0.00000319,0.00000676,0.0
 0001301,-0.00001561,0.00000342,0.00000153,0.00000115,-0.00000759,-0.00
 000938,0.00000599,0.00000214,0.00001212,-0.00000363,0.00000252,-0.0000
 0461,0.00000540,-0.00000150,0.00000145,-0.00000455,0.00000186,-0.00000
 243,0.00000637,-0.00000595,-0.00000182,-0.00000991,0.00000601,0.000001
 34,0.00001571,-0.00000322,-0.00002125,-0.00000606,-0.00000524,0.000016
 66,0.00000089,0.00000681,-0.00000795,-0.00000327,0.00000094,0.00000158
 ,-0.00000023,0.00000064,0.00001193,0.00001107,0.00000293,0.00000141,-0
 .00000824,0.00000416,-0.00000134,0.00000540,-0.00000340,-0.00000468,-0
 .00000498,0.00000744,-0.00000025,0.00000257,-0.00000462,0.00000319,-0.
 00000106,0.00000325,-0.00000749,0.00000129,-0.00000828,0.00000129,0.00
 000103,0.00000629,-0.00000140,-0.00000771,-0.00001253,-0.00000849,-0.0
 0000284,0.00000099,0.00001479,0.00000376,-0.00000207,-0.00000010,-0.00
 000249,0.00000249,-0.00000392,0.00000480,-0.00000421,-0.00000208,-0.00
 000019,-0.00000028,0.00000059,0.00000275,-0.00000031,0.00000039,-0.000
 00220,0.00000086,-0.00000267,0.00000183,0.,0.00000392,-0.00000258,0.00
 000021,-0.00000409,-0.00000134,-0.00000163,0.00000116,0.00000182,0.000
 00245,-0.00000507,-0.00000135,-0.00000062,0.00000200,0.00000230,-0.000
 00012,-0.00000099,0.00000059,-0.00000166,0.00000224,-0.00000102,0.0000
 0207,0.00000022,0.00000141,-0.00000269,-0.00000133,-0.00000131,0.00000
 142,-0.00000146,0.00000260,0.00000191,0.00000473,0.00000126,-0.0000021
 2,-0.00000594,-0.00000005,-0.00000003,0.00000044,0.00000091,-0.0000016
 1,0.00000048,-0.00000005,0.00000091\\\@
 The archive entry for this job was punched.


 FRICTION IS A DRAG,
 AND ENTROPY AIN'T WHAT IT USED TO BE.
 Job cpu time:       0 days  2 hours 26 minutes  4.4 seconds.
 Elapsed time:       0 days  0 hours  9 minutes 18.9 seconds.
 File lengths (MBytes):  RWF=   1302 Int=      0 D2E=      0 Chk=     21 Scr=      1
 Normal termination of Gaussian 16 at Fri Jun  5 17:17:38 2026.
